SMILES,"T,K",Solubility,Solvent,SMILES_Solvent,Source
O=C1CC[C@@H](C(=O)N2CSC[C@H]2C(=O)O)N1,303.15,0.000663,isopropanol,CC(C)O,10.1021/acs.jced.0c00616
O=C(O)COc1ccc(Cl)cc1,303.15,0.04764,isopropanol,CC(C)O,10.1021/acs.jced.1c00153
Cc1cc(Cl)cc(C(=O)O)c1N,303.15,0.00911,isopropanol,CC(C)O,10.1021/acs.jced.1c00047
Cc1c(N)cccc1C(=O)O,303.15,0.003857,isopropanol,CC(C)O,10.1021/acs.jced.1c00109
N=C(N)NCCC[C@H](N)C(=O)O.O=C1CC[C@@H](C(=O)O)N1,303.15,9.3e-05,isopropanol,CC(C)O,10.1021/acs.jced.0c01074
c1ccc(-n2c(-c3cc(-c4nc5ccccc5n4-c4ccccc4)cc(-c4nc5ccccc5n4-c4ccccc4)c3)nc3ccccc32)cc1,303.15,3.04e-05,isopropanol,CC(C)O,10.1021/acs.jced.1c00163
CC(=O)Nc1ccccc1[N+](=O)[O-],303.15,0.0184,isopropanol,CC(C)O,10.1021/acs.jced.1c00037
CSCCC(NC(C)=O)C(=O)O,303.15,0.06601,isopropanol,CC(C)O,10.1021/acs.jced.1c00064
O=C(O)c1ccc(CO)cc1,303.15,0.04404,isopropanol,CC(C)O,10.1021/acs.jced.1c00035
Nc1cccc(S(=O)(=O)c2cccc(N)c2)c1,303.15,0.002581,isopropanol,CC(C)O,10.1021/acs.jced.1c00062
O=C(O)[C@@H]1C[C@@H](O)CN1,303.15,0.000154,isopropanol,CC(C)O,10.1021/acs.jced.0c00794
O=Cc1cc(C=O)cc(C=O)c1,303.15,0.000803,isopropanol,CC(C)O,10.1021/acs.jced.0c00776
COc1cc2nc(Cl)nc(N)c2cc1OC,303.15,0.0004344,isopropanol,CC(C)O,10.1021/acs.jced.0c00506
O=C(O)[C@@H]1CSCN1,303.15,9.8e-05,isopropanol,CC(C)O,10.1021/acs.jced.0c00996
CCOc1ccccc1C(N)=O,303.15,0.012179,isopropanol,CC(C)O,10.1021/acs.jced.0c01081
O=C(Nc1ccccc1)c1ccccc1O,303.15,0.0314756,isopropanol,CC(C)O,10.1021/acs.jced.0c01078
O=C(O)c1cccc(O)c1O,303.15,0.09018,isopropanol,CC(C)O,10.1021/acs.jced.0c01032
NC(=O)[C@@H]1CCCN1,303.15,0.15276,isopropanol,CC(C)O,10.1021/acs.jced.0c00961
CC(=O)O[C@]1(C(C)=O)CC[C@H]2[C@@H]3C=C(Cl)C4=CC(=O)[C@@H]5C[C@@H]5[C@]4(C)[C@H]3CC[C@@]21C,303.15,0.00043524,isopropanol,CC(C)O,10.1021/acs.jced.0c00803
c1ccc2[nH]c(-c3cscn3)nc2c1,303.15,0.00118,isopropanol,CC(C)O,10.1021/acs.jced.0c00724
Nc1ccc(Cc2ccc(N)c(Cl)c2)cc1Cl,303.15,0.02942,isopropanol,CC(C)O,10.1021/acs.jced.0c00655
c1cnc2[nH]ccc2c1,303.15,0.2791,isopropanol,CC(C)O,10.1021/acs.jced.0c00128
Nc1cccc(Cl)c1C(=O)O,303.15,0.04788,isopropanol,CC(C)O,10.1021/acs.jced.0c00320
CC1=NN(c2ccccc2)C(=O)C1,303.15,0.026761,isopropanol,CC(C)O,10.1021/acs.jced.0c00290
C#C[C@]1(O)CC[C@H]2[C@@H]3CCC4=CC(=O)CC[C@@H]4[C@H]3C(=C)C[C@@]21CC,303.15,0.0115,isopropanol,CC(C)O,10.1021/acs.jced.0c00201
Cl.N=C(N=C(N)N)N1CCOCC1,303.15,0.00079,isopropanol,CC(C)O,10.1021/acs.jced.0c00015
Nc1nc(=O)[nH]cc1F,303.15,0.0003817,isopropanol,CC(C)O,10.1021/acs.jced.1c00206
O=C(O)CNCc1ccccc1,303.15,9.6e-05,isopropanol,CC(C)O,10.1021/acs.jced.1c00050
O=C(O)c1cccc([N+](=O)[O-])c1O,303.15,0.06859,isopropanol,CC(C)O,10.1021/acs.jced.1c00259
Cl.N[C@@H](Cc1ccccc1)C(=O)OCc1ccccc1,303.15,0.000882,isopropanol,CC(C)O,10.1021/acs.jced.1c00239
O=C1CCc2cc(OCCCCc3nnnn3C3CCCCC3)ccc2N1,303.15,0.000683,isopropanol,CC(C)O,10.1021/acs.jced.1c00302
CCOC(=O)[C@@H]1CSCN1.Cl,303.15,0.00492,isopropanol,CC(C)O,10.1021/acs.jced.1c00079
CC(C)(C)OC(=O)N1CCC[C@H]1C(=O)O,303.15,0.13372,isopropanol,CC(C)O,10.1021/acs.jced.1c00201
O=C(O)c1cccc(C(=O)O)n1,303.15,0.00735,isopropanol,CC(C)O,10.1021/acs.jced.1c00200
Nc1cccc(C(=O)O)c1,303.15,0.0112,isopropanol,CC(C)O,10.1021/acs.jced.1c00247
O=C(N[C@H](C(=O)O)c1ccccc1)OCc1ccccc1,303.15,0.03279,isopropanol,CC(C)O,10.1021/acs.jced.1c00240
CCO.C[C@H]1c2cccc(O)c2C(O)=C2C(=O)[C@]3(O)C(O)=C(C(N)=O)C(=O)[C@@H](N(C)C)[C@@H]3[C@@H](O)[C@@H]21.C[C@H]1c2cccc(O)c2C(O)=C2C(=O)[C@]3(O)C(O)=C(C(N)=O)C(=O)[C@@H](N(C)C)[C@@H]3[C@@H](O)[C@@H]21.Cl.Cl.O,303.15,0.00149,isopropanol,CC(C)O,10.1021/acs.jced.0c00097
O=C(O)c1cc([N+](=O)[O-])cc([N+](=O)[O-])c1O,303.15,0.05305,isopropanol,CC(C)O,10.1021/acs.jced.0c00122
O=C1N=c2ccccc2=N1,303.15,0.0040159,isopropanol,CC(C)O,10.1021/acs.jced.0c00165
CC(C)(c1ccc(O)cc1)c1ccc(O)cc1,303.15,0.1234,isopropanol,CC(C)O,10.1021/acs.jced.0c00166
O=c1cc(CBr)c2ccccc2[nH]1,303.15,0.000279,isopropanol,CC(C)O,10.1021/acs.jced.0c00303
OCc1ccccc1O[C@@H]1OC(CO)[C@@H](O)[C@@H](O)C1O,303.15,0.0003493,isopropanol,CC(C)O,10.1021/acs.jced.0c00332
OC[C@H]1O[C@@H](Oc2ccc(O)cc2)[C@H](O)[C@@H](O)[C@@H]1O,303.15,0.001282,isopropanol,CC(C)O,10.1021/acs.jced.0c00353
CCOC(=O)[C@@H](N)CCc1ccccc1.Cl,303.15,0.01349,isopropanol,CC(C)O,10.1021/acs.jced.1c00485
CC(CCc1ccccc1)NCC(O)c1ccc(O)c(C(N)=O)c1.Cl,303.15,0.000355,isopropanol,CC(C)O,10.1021/acs.jced.1c00432
COc1cc2c(cc1OC)C(=O)CC2,303.15,0.019763,isopropanol,CC(C)O,10.1021/acs.jced.1c00040
O[C@H]1[C@H](O)[C@@H](O)[C@H](O)[C@@H](O)[C@H]1O,303.15,3.01e-05,isopropanol,CC(C)O,10.1021/acs.jced.0c01067
CC(=O)NCC(=O)O,303.15,0.004145,isopropanol,CC(C)O,10.1021/acs.jced.0c00983
CC(=O)N1CCC[C@H]1C(=O)O,303.15,0.09898,isopropanol,CC(C)O,10.1021/acs.jced.1c00032
NC1CCSC1=O,303.15,0.001163,isopropanol,CC(C)O,10.1021/acs.jced.0c01089
CCCOC(=O)c1ccc(O)cc1,303.15,0.2075,isopropanol,CC(C)O,10.1021/acs.jced.0c00584
CNCCC(Oc1ccc(C(F)(F)F)cc1)c1ccccc1.Cl,303.15,0.008711,isopropanol,CC(C)O,10.1021/acs.jced.0c00513
C=CC(=O)NC(C)(C)CS(=O)(=O)O,303.15,0.001291,isopropanol,CC(C)O,10.1021/acs.jced.0c00578
O=C(O)Cc1ccccc1[N+](=O)[O-],303.15,0.03022,isopropanol,CC(C)O,10.1021/acs.jced.0c00543
O=C(O)Cc1ccc([N+](=O)[O-])cc1,303.15,0.05418,isopropanol,CC(C)O,10.1021/acs.jced.0c00182
N[C@@H](CS)C(=O)O,303.15,0.000158,isopropanol,CC(C)O,10.1021/acs.jced.0c00031
Oc1ccc(OCc2ccccc2)cc1,303.15,0.07357,isopropanol,CC(C)O,10.1021/acs.jced.9b00817
O=C([O-])/C=C/C(=O)O.[Na+],303.15,4.08e-05,isopropanol,CC(C)O,10.1021/acs.jced.9b01203
COC(=O)C1=C(C)NC(C)=C(C(=O)OCC(C)C)C1c1ccccc1[N+](=O)[O-],303.15,0.01101,isopropanol,CC(C)O,10.1021/acs.jced.9b01036
O=c1[nH]c2ccccc2c(=O)o1,303.15,0.00176,isopropanol,CC(C)O,10.1021/acs.jced.9b01164
O=C[C@H](O)[C@H](O)[C@H](O)CO,303.15,0.0117036,isopropanol,CC(C)O,10.1021/acs.jced.0c00009
Oc1c(Br)cc(Br)c2cccnc12,303.15,0.000188,isopropanol,CC(C)O,10.1021/acs.jced.9b01190
CC(=O)N[C@@H](CC(C)C)C(=O)O,303.15,0.03126,isopropanol,CC(C)O,10.1021/acs.jced.9b01151
CN(C)Cc1c[nH]c2ccccc12,303.15,0.03045,isopropanol,CC(C)O,10.1021/acs.jced.9b00911
C[C@H](N)C(=O)O,303.15,0.000174,isopropanol,CC(C)O,10.1021/acs.jced.9b00743
COc1cc([N+](=O)[O-])ccc1N,303.15,0.00492,isopropanol,CC(C)O,10.1021/acs.jced.9b00991
O=Cc1ccc(O)c(Br)c1,303.15,0.01709,isopropanol,CC(C)O,10.1021/acs.jced.9b01004
CCCc1ncc(C[n+]2ccccc2C)c(N)n1.Cl.[Cl-],303.15,6.13e-05,isopropanol,CC(C)O,10.1021/acs.jced.9b00999
Nc1ccc(Cl)cc1[N+](=O)[O-],303.15,0.02521,isopropanol,CC(C)O,10.1021/acs.jced.9b00919
O=S(=O)([O-])c1cccc2c(S(=O)(=O)[O-])cccc12.[Na+].[Na+],303.15,6.45e-05,isopropanol,CC(C)O,10.1021/acs.jced.9b00029
O=C(O)c1cccnc1Cl,303.15,0.01134,isopropanol,CC(C)O,10.1021/acs.jced.9b00661
OC[C@H]1O[C@@H](Oc2ccc(O)cc2)[C@H](O)[C@@H](O)[C@@H]1O,303.15,0.0012466,isopropanol,CC(C)O,10.1021/acs.jced.9b00703
NC(N)=NC(N)=NCCc1ccccc1,303.15,0.002081,isopropanol,CC(C)O,10.1021/acs.jced.9b00844
CN1CCN(c2c(F)cc3c(=O)c(C(=O)O)cn4c3c2OCN4C)CC1,303.15,0.0001066,isopropanol,CC(C)O,10.1021/acs.jced.9b00490
Nc1c(Cl)cc([N+](=O)[O-])cc1Cl,303.15,0.001952,isopropanol,CC(C)O,10.1021/acs.jced.9b00778
CN(C)[C@@H]1C(=O)C(C(N)=O)=C(O)[C@@]2(O)C(=O)C3=C(O)c4c(O)cccc4C[C@H]3C[C@@H]12,303.15,8.054e-05,isopropanol,CC(C)O,10.1021/acs.jced.9b00693
NCCCCCC(=O)O,303.15,0.000123,isopropanol,CC(C)O,10.1021/acs.jced.9b00543
N[C@H](Cc1c[nH]cn1)C(=O)O,303.15,0.000598,isopropanol,CC(C)O,10.1021/acs.jced.9b00659
O=C(Nc1ccc(F)cc1F)c1cccnc1Oc1cccc(C(F)(F)F)c1,303.15,0.000431,isopropanol,CC(C)O,10.1021/acs.jced.8b00632
O=P(O)(O)c1ccccc1,303.15,0.30691,isopropanol,CC(C)O,10.1021/acs.jced.9b00362
OCc1ccc(O[C@@H]2O[C@H](CO)[C@@H](O)[C@H](O)[C@H]2O)cc1,303.15,0.00312,isopropanol,CC(C)O,10.1021/acs.jced.9b00286
O=[N+]([O-])c1ncccc1O,303.15,0.08631,isopropanol,CC(C)O,10.1021/acs.jced.9b00564
N=C(N)NC(N)=S,303.15,0.003633,isopropanol,CC(C)O,10.1021/acs.jced.9b00458
O=C(O)C=CC(=O)O.OCCOCCN1CCN(C2=Nc3ccccc3Sc3ccccc32)CC1.OCCOCCN1CCN(C2=Nc3ccccc3Sc3ccccc32)CC1,303.15,0.000251,isopropanol,CC(C)O,10.1021/acs.jced.7b00518
O=C1C=CC(=O)N1c1ccccc1Br,303.15,0.0221,isopropanol,CC(C)O,10.1021/acs.jced.9b00560
C[C@]12CCC3=C4CCC(=O)C=C4CC[C@H]3[C@@H]1CC[C@@]2(O)CC#N,303.15,0.00227,isopropanol,CC(C)O,10.1021/acs.jced.9b00696
c1cc(-n2c3ccccc3c3ccccc32)cc(-n2c3ccccc3c3ccccc32)c1,303.15,6.95e-05,isopropanol,CC(C)O,10.1021/acs.jced.9b00432
N[C@@H](CO)C(=O)O,303.15,5e-06,isopropanol,CC(C)O,10.1021/acs.jced.9b00460
Cc1nc(N)nc(N)n1,303.15,0.0005869,isopropanol,CC(C)O,10.1021/acs.jced.9b00593
N[C@@H](Cc1c[nH]c2ccccc12)C(=O)O,303.15,0.00021,isopropanol,CC(C)O,10.1021/acs.jced.9b00562
Cc1cnc(C(=O)O)cn1,303.15,1.78e-05,isopropanol,CC(C)O,10.1021/acs.jced.9b00406
Nc1nnn[nH]1,303.15,0.001161,isopropanol,CC(C)O,10.1021/acs.jced.9b00385
NNC(=O)NN.O=[N+]([O-])NC1=NC(C2N=NC(N[N+](=O)[O-])=N2)N=N1,303.15,5.04e-05,isopropanol,CC(C)O,10.1021/acs.jced.9b00275
Sc1nc2ccccc2[nH]1,303.15,0.0088,isopropanol,CC(C)O,10.1021/acs.jced.9b00190
Cc1c(C(=O)O)cc([N+](=O)[O-])cc1[N+](=O)[O-],303.15,0.01702,isopropanol,CC(C)O,10.1021/acs.jced.9b00497
CC(=NC#N)N(C)Cc1ccc(Cl)nc1,303.15,0.01471,isopropanol,CC(C)O,10.1021/acs.jced.9b00294
N#Cc1cccc([N+](=O)[O-])c1C#N,303.15,0.001509,isopropanol,CC(C)O,10.1021/acs.jced.8b01250
O=Cc1cc([N+](=O)[O-])ccc1O,303.15,0.003342,isopropanol,CC(C)O,10.1021/acs.jced.9b00232
CC1=NNC(=O)N(/N=C/c2cccnc2)C1,303.15,0.0004609,isopropanol,CC(C)O,10.1021/acs.jced.9b00229
N[C@@H](Cc1ccc(O)cc1)C(=O)O,303.15,1.239e-05,isopropanol,CC(C)O,10.1021/acs.jced.9b00258
N[C@H](CC(=O)O)C(=O)O,303.15,0.000353,isopropanol,CC(C)O,10.1021/acs.jced.9b00320
N#CCc1ccccc1[N+](=O)[O-],303.15,0.01321,isopropanol,CC(C)O,10.1021/acs.jced.9b00243
Nc1cc([N+](=O)[O-])ccc1Cl,303.15,0.0158,isopropanol,CC(C)O,10.1021/acs.jced.8b00931
CCOC(=O)[C@@H](C)Oc1ccc(Oc2cnc3cc(Cl)ccc3n2)cc1,303.15,0.005043,isopropanol,CC(C)O,10.1021/acs.jced.8b01181
Cc1cccc(C(=O)O)c1N,303.15,0.02528,isopropanol,CC(C)O,10.1021/acs.jced.8b01226
NC(=O)c1ccc([N+](=O)[O-])cc1,303.15,0.002857,isopropanol,CC(C)O,10.1021/acs.jced.9b00065
Nc1nc2c(ncn2COC(CO)CO)c(=O)[nH]1,303.15,9.915e-05,isopropanol,CC(C)O,10.1021/acs.jced.8b01080
Nc1cccc2c(N)cccc12,303.15,0.001261,isopropanol,CC(C)O,10.1021/acs.jced.8b01214
Nc1cccc2cccc(N)c12,303.15,0.06876,isopropanol,CC(C)O,10.1021/acs.jced.8b01214
C[C@@H](O)[C@H]1C(=O)N2C(C(=O)[O-])=C(SC3Cn4cnc[n+]4C3)[C@H](C)[C@H]12,303.15,1.413e-05,isopropanol,CC(C)O,10.1021/acs.jced.8b01051
O=C(O)Cc1c[nH]c2ccccc12,303.15,2.885e-05,isopropanol,CC(C)O,10.1021/acs.jced.8b01265
CC#C[C@]1(O)CC[C@H]2[C@@H]3CCC4=CC(=O)CCC4=C3[C@@H](c3ccc(N(C)C)cc3)C[C@@]21C,303.15,0.00074,isopropanol,CC(C)O,10.1021/acs.jced.8b01062
NC(=O)c1ccc(N)cc1,303.15,0.004867,isopropanol,CC(C)O,10.1021/acs.jced.8b01144
CC(=O)N(CC(O)CO)c1c(I)c(C(=O)NCC(O)CO)c(I)c(C(=O)NCC(O)CO)c1I,303.15,0.0008062,isopropanol,CC(C)O,10.1021/acs.jced.8b01101
CC(C)N1C(=O)N(c2ccccc2)CSC1=NC(C)(C)C,303.15,0.0254,isopropanol,CC(C)O,10.1021/acs.jced.8b01099
COC(=O)Nc1nc2ccc(C(=O)c3ccc(F)cc3)cc2[nH]1,303.15,1.345e-05,isopropanol,CC(C)O,10.1021/acs.jced.8b01126
Cc1nc(C)c(C)nc1C,303.15,0.16554,isopropanol,CC(C)O,10.1021/acs.jced.8b00888
Nc1nc(Cl)c2[nH]cnc2n1,303.15,0.000165,isopropanol,CC(C)O,10.1021/acs.jced.8b01014
COc1c(N2CCNC(C)C2)c(F)cc2c(=O)c(C(=O)O)cn(C3CC3)c12,303.15,0.000498,isopropanol,CC(C)O,10.1021/acs.jced.8b00902
CCOC(=O)C1=C[C@]2(CC)CCCN3CCc4c(n1c1ccccc41)[C@@H]32,303.15,0.001084,isopropanol,CC(C)O,10.1021/acs.jced.8b00663
N#CCc1ccc([N+](=O)[O-])cc1,303.15,0.003321,isopropanol,CC(C)O,10.1021/acs.jced.8b00811
COc1ccc(Cl)cc1C(=O)NCCc1ccc(S(=O)(=O)NC(=O)NC2CCCCC2)cc1,303.15,0.00020701,isopropanol,CC(C)O,10.1021/acs.jced.8b00717
NNC(=O)c1ccncc1,303.15,0.004533,isopropanol,CC(C)O,10.1021/acs.jced.8b00785
CC[C@@H](C(N)=O)N1CCCC1=O,303.15,0.02863,isopropanol,CC(C)O,10.1021/acs.jced.8b00720
O=C(O)c1cc2ccccc2cc1O,303.15,0.0306,isopropanol,CC(C)O,10.1021/acs.jced.8b00578
CCOC(=O)[C@H](CCc1ccccc1)N[C@@H](C)C(=O)O,303.15,0.002214,isopropanol,CC(C)O,10.1021/acs.jced.8b00333
CCOC(=O)[C@H](CCc1ccccc1)N[C@@H](C)C(=O)N1CCC[C@H]1C(=O)O.O=C(O)/C=C\C(=O)O,303.15,0.0008087,isopropanol,CC(C)O,10.1021/acs.jced.8b00333
CS(=O)(=O)O.Cc1ccc(NC(=O)c2ccc(CN3CCN(C)CC3)cc2)cc1Nc1nccc(-c2cccnc2)n1,303.15,3.54e-05,isopropanol,CC(C)O,10.1021/acs.jced.8b00551
Cc1ccc(S(N)(=O)=O)cc1,303.15,0.0347,isopropanol,CC(C)O,10.1021/acs.jced.7b00714
Cc1ccccc1S(N)(=O)=O,303.15,0.03052,isopropanol,CC(C)O,10.1021/acs.jced.7b00714
N#Cc1cccc([N+](=O)[O-])c1,303.15,0.005649,isopropanol,CC(C)O,10.1021/acs.jced.7b00615
CS(=O)(=O)c1ccc([C@@H](O)[C@@H](CO)NC(=O)C(Cl)Cl)cc1,303.15,0.0002015,isopropanol,CC(C)O,10.1021/acs.jced.7b00542
NC(=O)c1cccnc1,303.15,0.0395726,isopropanol,CC(C)O,10.1021/acs.jced.8b00560
COCC(=O)Nc1c(I)c(C(=O)NCC(O)CO)c(I)c(C(=O)N(C)CC(O)CO)c1I,303.15,0.0001505,isopropanol,CC(C)O,10.1021/acs.jced.8b00416
Nc1nc(Cl)cc(Cl)n1,303.15,0.00148,isopropanol,CC(C)O,10.1021/acs.jced.8b00292
O=C(O)c1c(O)cccc1O,303.15,0.29229,isopropanol,CC(C)O,10.1021/acs.jced.6b00957
COc1cc(C(=O)O)cc(OC)c1O,303.15,0.00752,isopropanol,CC(C)O,10.1021/acs.jced.7b00333
On1nnc2ccccc21,303.15,0.04806,isopropanol,CC(C)O,10.1021/acs.jced.7b00316
CC(C)(C)c1ccc(C(=O)O)cc1,303.15,0.1338,isopropanol,CC(C)O,10.1021/acs.jced.6b00965
COc1ccc(CN2CCNCC2)c(OC)c1OC.Cl,303.15,0.0001844,isopropanol,CC(C)O,10.1021/acs.jced.8b00235
O=c1nc[nH]c2[nH]ncc12,303.15,0.0001122,isopropanol,CC(C)O,10.1021/acs.jced.8b00430
COc1ccc(CC(=O)O)cc1,303.15,0.2275,isopropanol,CC(C)O,10.1021/acs.jced.8b00271
Cc1cc(C)nc(Nc2ccccc2)n1,303.15,0.02503,isopropanol,CC(C)O,10.1021/acs.jced.8b00124
CC(=O)c1cccc([N+](=O)[O-])c1,303.15,0.01166,isopropanol,CC(C)O,10.1021/acs.jced.8b00192
CC(=O)c1ccc([N+](=O)[O-])cc1,303.15,0.01277,isopropanol,CC(C)O,10.1021/acs.jced.8b00192
COc1ccc(C(=O)N2CCCC2=O)cc1,303.15,0.004178,isopropanol,CC(C)O,10.1021/acs.jced.8b00023
O=C(O)Cc1ccccc1Cl,303.15,0.3689,isopropanol,CC(C)O,10.1021/acs.jced.8b00139
Nc1ccc(C(=O)O)cc1.[K],303.15,0.000486,isopropanol,CC(C)O,10.1021/acs.jced.7b00978
Nc1ccc(S(=O)(=O)Nc2ccc(Cl)nn2)cc1,303.15,0.004763,isopropanol,CC(C)O,10.1021/acs.jced.7b01134
CS(=O)(=O)c1ccc([C@@H](O)[C@@H](CF)NC(=O)C(Cl)Cl)cc1,303.15,0.001692,isopropanol,CC(C)O,10.1021/acs.jced.8b00043
O=C(c1ccccc1)c1ccccc1,303.15,0.2836,isopropanol,CC(C)O,10.1021/acs.jced.8b00196
Cc1ccc(NC(=O)/C(=C/Cl)Sc2ccccc2)cc1,303.15,0.0048,isopropanol,CC(C)O,10.1021/acs.jced.7b01011
O=C(c1ccccc1)C(O)c1ccccc1,303.15,0.00202,isopropanol,CC(C)O,10.1021/acs.jced.7b00743
Cc1ccc(S(=O)(=O)O)cc1.Cc1ccc(S(=O)(=O)O)cc1.OCCN(CCO)c1nc(N2CCCCC2)c2nc(N(CCO)CCO)nc(N3CCCCC3)c2n1,303.15,0.000305,isopropanol,CC(C)O,10.1021/acs.jced.7b00825
O=C1O[C@H]([C@@H](O)CO)C(O)=C1O.[Na],303.15,1.01e-05,isopropanol,CC(C)O,10.1021/acs.jced.7b00846
CO/C=C(/C(=O)OC)c1ccccc1Oc1cc(Oc2ccccc2C#N)ncn1,303.15,0.001016,isopropanol,CC(C)O,10.1021/acs.jced.7b00669
O=C(O)CS.[Na],303.15,0.000115,isopropanol,CC(C)O,10.1021/acs.jced.7b00245
O=[N+]([O-])N1C2C3N([N+](=O)[O-])C1C1N([N+](=O)[O-])C(C(N1[N+](=O)[O-])N3[N+](=O)[O-])N2[N+](=O)[O-],303.15,0.0002529,isopropanol,CC(C)O,10.1021/acs.jced.6b00761
CCOC(=O)N1CCC(=C2c3ccc(Cl)cc3CCc3cccnc32)CC1,303.15,0.02052,isopropanol,CC(C)O,10.1021/acs.jced.6b00721
CO[C@@]1(NC(=O)CSCC#N)C(=O)N2C(C(=O)[O-])=C(CSc3nnnn3C)CS[C@@H]21.[Na+],303.15,0.00017,isopropanol,CC(C)O,10.1021/acs.jced.6b00741
COC(=O)c1c(C)cc(O)c(C)c1O,303.15,0.1202,isopropanol,CC(C)O,10.1021/acs.jced.6b00646
CNC(=O)c1cc(Oc2ccc(NC(=O)Nc3ccc(Cl)c(C(F)(F)F)c3)cc2)ccn1,303.15,0.001039,isopropanol,CC(C)O,10.1021/acs.jced.6b00630
CNC(=O)c1cc(Oc2ccc(NC(=O)Nc3ccc(Cl)c(C(F)(F)F)c3)cc2)ccn1.Cc1ccc(S(=O)(=O)O)cc1,303.15,0.0001604,isopropanol,CC(C)O,10.1021/acs.jced.6b00630
O=C1NC23NC(=O)NC2(N1)C(=O)NC3=O,303.15,0.0003642,isopropanol,CC(C)O,10.1021/acs.jced.6b00349
O=C(O)/C=C/c1ccc(O)cc1,303.15,0.0373,isopropanol,CC(C)O,10.1021/acs.jced.6b00361
O=[N+]([O-])c1c[nH]nc1[N+](=O)[O-],303.15,0.412868,isopropanol,CC(C)O,10.1021/acs.jced.6b00219
O=C1NC(=O)c2cc([N+](=O)[O-])ccc21,303.15,0.002141,isopropanol,CC(C)O,10.1021/acs.jced.6b00230
CS(=O)(=O)c1ccc(C=O)cc1,303.15,0.0007033,isopropanol,CC(C)O,10.1021/acs.jced.5b01053
OC[C@H](O)[C@@H](O)[C@H](O[C@H]1O[C@H](CO)[C@@H](O)[C@H](O)[C@H]1O)[C@H](O)CO,303.15,2.3e-05,isopropanol,CC(C)O,10.1021/acs.jced.5b00565
C=C(C)[C@@H]1CC[C@]2(C(=O)O)CC[C@]3(C)[C@H](CC[C@@H]4[C@@]5(C)CCC(=O)C(C)(C)[C@@H]5CC[C@]43C)[C@@H]12,303.15,0.00968,isopropanol,CC(C)O,10.1021/acs.jced.5b00122
COc1cc(C(=O)O)ccc1O,303.15,0.0334,isopropanol,CC(C)O,10.1021/acs.jced.5b00619
Clc1cc(Cl)cc(Cl)c1,303.15,0.07401,isopropanol,CC(C)O,10.1021/acs.jced.5b00607
O=S(=O)(c1ccc(O)cc1)c1ccc(O)cc1,303.15,0.0006492,isopropanol,CC(C)O,10.1021/acs.jced.5b00714
O=Cc1ccc2ccccc2c1,303.15,0.0908,isopropanol,CC(C)O,10.1021/acs.jced.5b00377
CN1C(C(=O)Nc2ccccn2)=C(O)c2sccc2S1(=O)=O,303.15,8.91e-05,isopropanol,CC(C)O,10.1021/acs.jced.5b00382
COC(=O)[C@H](c1ccccc1Cl)N1CCc2sccc2C1.O=S(=O)(O)O,303.15,0.038168,isopropanol,CC(C)O,10.1021/acs.jced.5b00306
Nc1ccc(Cc2ccc(N)cc2)cc1,303.15,0.0178,isopropanol,CC(C)O,10.1021/je501111d
C=C1C[C@]23C[C@H]1CC[C@H]2[C@@]12CC[C@H](O)[C@@](C)(C(=O)O1)[C@H]2[C@@H]3C(=O)O,303.15,0.096862,isopropanol,CC(C)O,10.1021/acs.jced.5b00190
CCOC(=O)C1(c2ccccc2)CCN(CCC(C#N)(c2ccccc2)c2ccccc2)CC1,303.15,0.0006267,isopropanol,CC(C)O,10.1021/je5010033
COc1ccc(C(=O)O)c(OC)c1,303.15,0.0147,isopropanol,CC(C)O,10.1021/je501045s
C[C@@H]1O[C@@H](O[C@H]2[C@H](Oc3cc(O)c4c(c3)O[C@H](c3ccc(O)cc3)CC4=O)O[C@H](CO)[C@@H](O)[C@@H]2O)[C@H](O)[C@H](O)[C@H]1O,303.15,2.459e-05,isopropanol,CC(C)O,10.1021/je501004g
O=C1CC(c2ccc(O)cc2)Oc2cc(O)cc(O)c21,303.15,0.016148,isopropanol,CC(C)O,10.1021/je501004g
Nc1ccc(S(=O)(=O)O)cc1,303.15,0.000373,isopropanol,CC(C)O,10.1021/je500867u
c1ccc2c(c1)sc1ccccc12,303.15,0.008739,isopropanol,CC(C)O,10.1021/je500437m
C=CC1=C(C(=O)O)N2C(=O)[C@@H](NC(=O)/C(=N\OCC(=O)O)c3csc(N)n3)[C@H]2SC1.O.O.O,303.15,0.001954,isopropanol,CC(C)O,10.1021/je5000605
C[N+](C)(C)C[C@H](O)CC(=O)[O-],303.15,0.004173,isopropanol,CC(C)O,10.1021/je500078n
CCN1CCN(c2cc3c(cc2F)c(=O)c(C(=O)O)cn3C2CC2)CC1,303.15,0.0007321,isopropanol,CC(C)O,10.1021/je5002158
COc1ccc([C@@H]2CC(=O)c3c(O)cc(O[C@@H]4O[C@H](CO[C@@H]5O[C@@H](C)[C@H](O)[C@@H](O)[C@H]5O)[C@@H](O)[C@H](O)[C@H]4O)cc3O2)cc1O,303.15,1.87e-05,isopropanol,CC(C)O,10.1021/je500206w
O=[N+]([O-])c1ccc(Cl)c(Cl)c1,303.15,0.1236,isopropanol,CC(C)O,10.1021/je401044h
O=[N+]([O-])c1cccc(Cl)c1Cl,303.15,0.04996,isopropanol,CC(C)O,10.1021/je401044h
CC[C@H]1OC(=O)[C@H](C)[C@@H](O[C@H]2C[C@@](C)(OC)[C@@H](O)[C@H](C)O2)[C@H](C)[C@@H](O[C@@H]2O[C@H](C)C[C@H](N(C)C)[C@H]2O)[C@](C)(O)C[C@@H](C)CN(C)[C@H](C)[C@@H](O)[C@]1(C)O.O,303.15,0.0433,isopropanol,CC(C)O,10.1021/je400899e
CCNc1nc(Cl)nc(NC(C)C)n1,303.15,0.0042534,isopropanol,CC(C)O,10.1021/je400639m
Nc1cc(N2CCCCC2)nc(N)[n+]1[O-],303.15,0.00445,isopropanol,CC(C)O,10.1021/je1012839
CCOc1nc2cccc(C(=O)OC(C)OC(=O)OC3CCCCC3)c2n1Cc1ccc(-c2ccccc2-c2nnn[nH]2)cc1,303.15,0.00128,isopropanol,CC(C)O,10.1021/je101020m
N[C@@H](Cc1ccc([N+](=O)[O-])cc1[N+](=O)[O-])C(=O)O,303.15,3.573e-05,isopropanol,CC(C)O,10.1021/je100352r
Nc1ccc(S(=O)(=O)Nc2ncccn2)cc1,303.15,0.0001035,isopropanol,CC(C)O,10.1021/je900742p
OC[C@H]1O[C@H](O[C@]2(CCl)O[C@H](CCl)[C@@H](O)[C@@H]2O)[C@H](O)[C@@H](O)[C@H]1Cl,303.15,0.006236,isopropanol,CC(C)O,10.1021/je9008427
C[C@H](CS)C(=O)N1CCC[C@H]1C(=O)O,303.15,0.1056,isopropanol,CC(C)O,10.1021/je900401z
CC(C)(C)c1cc(CCC(=O)OCC(COC(=O)CCc2cc(C(C)(C)C)c(O)c(C(C)(C)C)c2)(COC(=O)CCc2cc(C(C)(C)C)c(O)c(C(C)(C)C)c2)COC(=O)CCc2cc(C(C)(C)C)c(O)c(C(C)(C)C)c2)cc(C(C)(C)C)c1O,303.15,0.0004061,isopropanol,CC(C)O,10.1021/je900435t
Nc1ccc(S(N)(=O)=O)cc1,303.15,0.002124,isopropanol,CC(C)O,10.1021/je900038m
O=C(Oc1ccccc1)c1ccccc1O,303.15,0.2751,isopropanol,CC(C)O,10.1021/je800668j
CC(=O)OCC(=O)[C@@]12N=C(C)O[C@@H]1C[C@H]1[C@@H]3CCC4=CC(=O)C=C[C@]4(C)[C@H]3[C@@H](O)C[C@@]12C,303.15,0.00203793,isopropanol,CC(C)O,10.1021/je800790g
c1ccc2oc(CSCc3nc4ccccc4o3)nc2c1,303.15,0.01403,isopropanol,CC(C)O,10.1021/je8005419
C1CN2CCN1CC2,303.15,0.363,isopropanol,CC(C)O,10.1021/je8005375
CCCCc1nc(Cl)c(CO)n1Cc1ccc(-c2ccccc2-c2nnn[n-]2)cc1.[K+],303.15,0.002792,isopropanol,CC(C)O,10.1021/je7007236
C1CN2CCN1CC2,303.15,0.00747,isopropanol,CC(C)O,10.1021/je700186v