SMILES,"T,K",Solubility,Solvent,SMILES_Solvent,Source
Oc1c(Br)cc(Br)c2cccnc12,303.15,0.01252,"N,N-dimethylaniline",CN(C)c1ccccc1,10.1021/acs.jced.9b01190
O=C(NC[C@H]1CN(c2ccc(N3CCOCC3=O)cc2)C(=O)O1)c1ccc(Cl)s1,303.15,9.39e-05,3-pentanone,CCC(=O)CC,10.1016/j.jct.2016.09.036
CC(C)COc1ccc(B(O)O)cc1,303.15,0.0416,dipropyl ether,CCCOCCC,10.1021/acs.jced.0c00468
O=[N+]([O-])N1CN([N+](=O)[O-])CN([N+](=O)[O-])CN([N+](=O)[O-])C1,303.15,0.061,triethyl phosphate,CCOP(=O)(OCC)OCC,10.1021/acs.jced.9b01192
O=[N+]([O-])N1CN([N+](=O)[O-])CN([N+](=O)[O-])CN([N+](=O)[O-])C1,303.15,0.0406,gamma-Butyrolactone,O=C1CCCO1,10.1021/acs.jced.9b01192
O=C1O[B-]2(OC1=O)OC(=O)C(=O)O2.[Li+],303.15,0.07962,gamma-Butyrolactone,O=C1CCCO1,10.1021/je500068b
O=C1CCC(=O)O1,303.15,0.283,gamma-Butyrolactone,O=C1CCCO1,10.1016/j.jct.2016.09.025
O=[N+]([O-])N1CN([N+](=O)[O-])CN([N+](=O)[O-])CN([N+](=O)[O-])C1,303.15,0.0201,propylene carbonate,CC1COC(=O)O1,10.1021/acs.jced.9b01192
O=[N+]([O-])N1CN([N+](=O)[O-])CN([N+](=O)[O-])CN([N+](=O)[O-])C1,303.15,0.0048,cyclopentanone,O=C1CCCC1,10.1021/acs.jced.9b01192
O=[N+]([O-])N1CN([N+](=O)[O-])CN([N+](=O)[O-])CN([N+](=O)[O-])C1,303.15,0.0019,pyridine,c1ccncc1,10.1021/acs.jced.9b01192
CN(C)Cc1c[nH]c2ccccc12,303.15,0.0021633,2-pentanol,CCCC(C)O,10.1021/acs.jced.9b01063
Cn1cc([N+](=O)[O-])cn1,303.15,0.001415,2-pentanol,CCCC(C)O,10.1016/j.fluid.2018.05.023
CN1CCN(c2c(F)cc3c(=O)c(C(=O)O)cn4c3c2OCN4C)CC1,303.15,0.0001403,tert-amyl alcohol,CCC(C)(C)O,10.1021/acs.jced.9b00490
Cc1ccc(NC(=O)/C(=C/Cl)Sc2ccccc2)cc1,303.15,0.005,tert-amyl alcohol,CCC(C)(C)O,10.1021/acs.jced.7b01011
O=C1OC(=O)c2c(Cl)cccc21,303.15,0.01131,tert-amyl alcohol,CCC(C)(C)O,10.1021/acs.jced.5b00526
O=C1OC(=O)c2cc(Cl)ccc21,303.15,0.02189,tert-amyl alcohol,CCC(C)(C)O,10.1021/acs.jced.5b00526
COC(=O)/C=C/c1ccc(O)cc1,303.15,0.1156,tert-amyl alcohol,CCC(C)(C)O,10.1021/je9004382
COC(=O)/C=C/c1ccc(O)c(OC)c1,303.15,0.2153,tert-amyl alcohol,CCC(C)(C)O,10.1021/je9004382
COC(=O)/C=C/c1cc(OC)c(O)c(OC)c1,303.15,0.0264,tert-amyl alcohol,CCC(C)(C)O,10.1021/je9004382
O=P(O)(O)c1ccccc1,303.15,0.39737,2-methoxyethanol,COCCO,10.1021/acs.jced.9b00362
C=C(C)[C@@H]1CC[C@]2(C(=O)O)CC[C@]3(C)[C@H](CC[C@@H]4[C@@]5(C)CCC(=O)C(C)(C)[C@@H]5CC[C@]43C)[C@@H]12,303.15,0.01174,2-methoxyethanol,COCCO,10.1021/acs.jced.5b00122
CC(C(=O)O)c1ccc2c(c1)CC(=O)c1ccccc1S2,303.15,0.07401,2-methoxyethanol,COCCO,10.1021/acs.jced.9b01180
Nc1nc2ccc(OC(F)(F)F)cc2s1,303.15,0.43623,2-methoxyethanol,COCCO,10.1016/j.jct.2021.106569
CN1CCN(C2=Nc3cc(Cl)ccc3Nc3ccccc32)CC1,303.15,0.0451,2-methoxyethanol,COCCO,10.1016/j.jct.2021.106398
O=c1cc(CO)occ1O,303.15,0.03771,2-methoxyethanol,COCCO,10.1016/j.jct.2020.106280
N#Cc1ccc2c(c1)OCO2,303.15,0.1194,2-methoxyethanol,COCCO,10.1016/j.jct.2020.106191
CN1COCN(Cc2cnc(Cl)s2)C1=N[N+](=O)[O-],303.15,0.01846,2-methoxyethanol,COCCO,10.1016/j.jct.2020.106116
CNC[C@H](O)c1cccc(O)c1.Cl,303.15,0.1606,2-methoxyethanol,COCCO,10.1016/j.jct.2019.105959
O=P(O)(O)c1ccccc1,303.15,0.36272,2-ethoxyethanol,CCOCCO,10.1021/acs.jced.9b00362
CP(=O)(O)c1ccccc1,303.15,0.2889,2-ethoxyethanol,CCOCCO,10.1021/je1009812
CC(C(=O)O)c1ccc2c(c1)CC(=O)c1ccccc1S2,303.15,0.07789,2-ethoxyethanol,CCOCCO,10.1021/acs.jced.9b01180
CN1CCN(C2=Nc3cc(Cl)ccc3Nc3ccccc32)CC1,303.15,0.04993,2-ethoxyethanol,CCOCCO,10.1016/j.jct.2021.106398
O=c1cc(CO)occ1O,303.15,0.02613,2-ethoxyethanol,CCOCCO,10.1016/j.jct.2020.106280
CN1COCN(Cc2cnc(Cl)s2)C1=N[N+](=O)[O-],303.15,0.008389,2-ethoxyethanol,CCOCCO,10.1016/j.jct.2020.106116
CNC[C@H](O)c1cccc(O)c1.Cl,303.15,0.06536,2-ethoxyethanol,CCOCCO,10.1016/j.jct.2019.105959
O=C1NC(=O)C2C3C=CC(C3)C12,303.15,0.038393,2-ethoxyethanol,CCOCCO,10.1016/j.fluid.2019.112301
Nc1ccc(Oc2ccc(N)cc2)cc1,303.15,0.035846,2-ethoxyethanol,CCOCCO,10.1016/j.fluid.2013.07.010
O=P(O)(O)c1ccccc1,303.15,0.30747,2-propoxyethanol,CCCOCCO,10.1021/acs.jced.9b00362
C=C(C)[C@@H]1CC[C@]2(C(=O)O)CC[C@]3(C)[C@H](CC[C@@H]4[C@@]5(C)CCC(=O)C(C)(C)[C@@H]5CC[C@]43C)[C@@H]12,303.15,0.02878,2-propoxyethanol,CCCOCCO,10.1021/acs.jced.5b00122
Nc1nc2ccc(OC(F)(F)F)cc2s1,303.15,0.50437,2-propoxyethanol,CCCOCCO,10.1016/j.jct.2021.106569
CN1CCN(C2=Nc3cc(Cl)ccc3Nc3ccccc32)CC1,303.15,0.05483,2-propoxyethanol,CCCOCCO,10.1016/j.jct.2021.106398
CNC[C@H](O)c1cccc(O)c1.Cl,303.15,0.02441,2-propoxyethanol,CCCOCCO,10.1016/j.jct.2019.105959
O=P(O)(O)c1ccccc1,303.15,0.20198,n-hexanol,CCCCCCO,10.1021/acs.jced.9b00362
Cc1c(C(=O)O)cc([N+](=O)[O-])cc1[N+](=O)[O-],303.15,0.01507,n-hexanol,CCCCCCO,10.1021/acs.jced.9b00497
COc1cc(C(=O)O)cc(OC)c1O,303.15,0.0048,n-hexanol,CCCCCCO,10.1021/acs.jced.7b00333
On1nnc2ccccc21,303.15,0.01738,n-hexanol,CCCCCCO,10.1021/acs.jced.7b00316
O=c1nc[nH]c2[nH]ncc12,303.15,0.0002138,n-hexanol,CCCCCCO,10.1021/acs.jced.8b00430
CCCCC1C(=O)N(c2ccccc2)N(c2ccccc2)C1=O,303.15,0.01253,n-hexanol,CCCCCCO,10.1021/acs.jced.6b00911
CCCCN(CCCC)CC(O)c1cc(Cl)cc2c1-c1ccc(Cl)cc1/C2=C/c1ccc(Cl)cc1,303.15,0.001193,n-hexanol,CCCCCCO,10.1016/j.jct.2020.106323
Cl.c1ccc([C@H]2CN3CCSC3=N2)cc1,303.15,0.002264,n-hexanol,CCCCCCO,10.1016/j.jct.2019.105882
CC(C)(C)C(=O)C(Oc1ccc(Cl)cc1)n1ccnc1,303.15,0.1642,n-hexanol,CCCCCCO,10.1016/j.jct.2014.04.011
Nc1nc(N)nc(NC2CC2)n1,303.15,0.001234,n-hexanol,CCCCCCO,10.1016/j.fluid.2018.07.024
O=C(O)CN(CC(=O)O)CP(=O)(O)O,303.15,0.001156,n-hexanol,CCCCCCO,10.1016/j.fluid.2014.08.036
O=P(O)(O)c1ccccc1,303.15,0.2575,2-butoxyethanol,CCCCOCCO,10.1021/acs.jced.9b00362
CNC[C@H](O)c1cccc(O)c1.Cl,303.15,0.01605,2-butoxyethanol,CCCCOCCO,10.1016/j.jct.2019.105959
O=C(O)c1ccccc1,303.15,0.179,n-pentyl acetate,CCCCCOC(C)=O,10.1021/acs.jced.8b00025
Nc1nc2ccc(OC(F)(F)F)cc2s1,303.15,0.39541,n-pentyl acetate,CCCCCOC(C)=O,10.1016/j.jct.2021.106569
CN1CCN(C2=Nc3cc(Cl)ccc3Nc3ccccc32)CC1,303.15,0.02214,n-pentyl acetate,CCCCCOC(C)=O,10.1016/j.jct.2021.106398
CC(=O)Nc1ccc(OC(=O)c2ccccc2OC(C)=O)cc1,303.15,0.0009828,n-pentyl acetate,CCCCCOC(C)=O,10.1016/j.jct.2020.106365
CCCCN(CCCC)CC(O)c1cc(Cl)cc2c1-c1ccc(Cl)cc1/C2=C/c1ccc(Cl)cc1,303.15,0.01678,n-pentyl acetate,CCCCCOC(C)=O,10.1016/j.jct.2020.106323
O=C(O)CCc1nc(-c2ccccc2)c(-c2ccccc2)o1,303.15,0.00654,n-pentyl acetate,CCCCCOC(C)=O,10.1016/j.jct.2020.106239
O=C(O)c1ccccc1,303.15,0.234,2-pentanone,CCCC(C)=O,10.1021/acs.jced.8b00025
O=P(Oc1ccccc1)(Oc1ccccc1)N1CCN(P(=O)(Oc2ccccc2)Oc2ccccc2)CC1,303.15,0.0005885,1-methoxy-2-propanol,COCC(C)O,10.1021/je501173n
O=P(NCc1cccc(CNP(=O)(Oc2ccccc2)Oc2ccccc2)c1)(Oc1ccccc1)Oc1ccccc1,303.15,0.0009355,1-methoxy-2-propanol,COCC(C)O,10.1021/je501173n
O=P12OCC(CO)(CO1)CO2,303.15,0.026921,1-methoxy-2-propanol,COCC(C)O,10.1021/je501173n
N#CCc1ccccc1[N+](=O)[O-],303.15,0.06442,ethylbenzene,CCc1ccccc1,10.1021/acs.jced.9b00243
N#CCc1ccc([N+](=O)[O-])cc1,303.15,0.01353,ethylbenzene,CCc1ccccc1,10.1021/acs.jced.8b00811
O=C(O)Cc1ccccc1Cl,303.15,0.0853,ethylbenzene,CCc1ccccc1,10.1021/acs.jced.8b00139
CC1=NN(c2ccc(C)cc2)C(=O)C1,303.15,0.02762,ethylbenzene,CCc1ccccc1,10.1016/j.jct.2016.08.007
CCCCCCN1C=CN(C)C1.O=[N+]([O-])O,303.15,0.000896,p-xylene,Cc1ccccc1,10.1021/je200151j
CCCCCCCCN1C=CN(C)C1.O=[N+]([O-])O,303.15,0.00331,p-xylene,Cc1ccccc1,10.1021/je200151j
CC(C)(C)C(=O)C(Oc1ccc(Cl)cc1)n1cncn1,303.15,0.146843,p-xylene,Cc1ccccc1,10.1021/je901024t
O=C(O)c1ccccc1,303.15,0.01,isooctane,CC(C)CC(C)(C)C,10.1021/acs.jced.8b00025
CCCCCCN1C=CN(C)C1.O=[N+]([O-])O,303.15,0.000578,n-pentane,CCCCC,10.1021/je200151j
CCCCCCCCN1C=CN(C)C1.O=[N+]([O-])O,303.15,0.001493,n-pentane,CCCCC,10.1021/je200151j
On1nnc2ccccc21,303.15,0.01543,isooctanol,CC(C)CCCCCO,10.1021/acs.jced.7b00316
CC(C)(C)c1ccc(C(=O)O)cc1,303.15,0.0277,p-tert-butyltoluene,Cc1ccc(C(C)(C)C)cc1,10.1021/acs.jced.6b00965
CC(C)(C)c1ccc(C(=O)O)cc1,303.15,0.0791,methyl 4-tert-butylbenzoate,COC(=O)c1ccc(C(C)(C)C)cc1,10.1021/acs.jced.6b00965
COc1ccc(CC(=O)O)cc1,303.15,0.0293,morpholine,C1COCCN1,10.1021/acs.jced.8b00271
COc1ccc(CC(=O)O)cc1,303.15,0.0737,anisole,COc1ccccc1,10.1021/acs.jced.8b00271
O=[N+]([O-])c1c[nH]nc1[N+](=O)[O-],303.15,0.057957,anisole,COc1ccccc1,10.1021/acs.jced.6b00219
O=C(O)c1ccccc1,303.15,0.543,tributyl phosphate,CCCCOP(=O)(OCCCC)OCCCC,10.1021/acs.jced.8b00025
O=C(O)c1ccccc1,303.15,0.306,diacetone alcohol,CC(=O)CC(C)(C)O,10.1021/acs.jced.8b00025
CS(=O)(=O)c1ccc([C@@H](O)[C@@H](CF)NC(=O)C(Cl)Cl)cc1,303.15,0.000521,2-ethyl-n-hexanol,CCCCC(CC)CO,10.1021/acs.jced.8b00043
Cc1ccc(NC(=O)/C(=C/Cl)Sc2ccccc2)cc1,303.15,0.0858,2-methyltetrahydrofuran,CC1CCCO1,10.1021/acs.jced.7b01011
O=[N+]([O-])N1C2C3N([N+](=O)[O-])C1C1N([N+](=O)[O-])C(C(N1[N+](=O)[O-])N3[N+](=O)[O-])N2[N+](=O)[O-],303.15,0.0001472,m-xylene,Cc1cccc(C)c1,10.1021/acs.jced.6b00761
CCCCCCN1C=CN(C)C1.O=[N+]([O-])O,303.15,0.002715,m-xylene,Cc1cccc(C)c1,10.1021/je200151j
CCCCCCCCN1C=CN(C)C1.O=[N+]([O-])O,303.15,0.005655,m-xylene,Cc1cccc(C)c1,10.1021/je200151j
O=[N+]([O-])N1C2C3N([N+](=O)[O-])C1C1N([N+](=O)[O-])C(C(N1[N+](=O)[O-])N3[N+](=O)[O-])N2[N+](=O)[O-],303.15,0.044295,triethyl orthoformate,CCOC(OCC)OCC,10.1021/acs.jced.6b00761
O=C1NC(=O)c2cc([N+](=O)[O-])ccc21,303.15,0.02944,benzyl alcohol,OCc1ccccc1,10.1021/acs.jced.6b00230
O=Cc1ccc(C=O)cc1,303.15,0.1178,benzyl alcohol,OCc1ccccc1,10.1016/j.jct.2016.07.013
O=C(O)COc1ccc(Cl)cc1Cl,303.15,0.0747,isobutyl acetate,CC(=O)OCC(C)C,10.1016/j.jct.2021.106589
CN1C(C(=O)Nc2ccccn2)=C(O)c2sccc2S1(=O)=O,303.15,0.000235,propylene glycol,CC(O)CO,10.1021/acs.jced.5b00382
COc1ccc([C@@H]2CC(=O)c3c(O)cc(O[C@@H]4O[C@H](CO[C@@H]5O[C@@H](C)[C@H](O)[C@@H](O)[C@H]5O)[C@@H](O)[C@H](O)[C@H]4O)cc3O2)cc1O,303.15,0.000647,propylene glycol,CC(O)CO,10.1021/je500206w
CN1CC(=O)N2C(CC3c4ccccc4NC3C2C2CCC3OCOC3C2)C1=O,303.15,0.000507,propylene glycol,CC(O)CO,10.1021/je400982r
O=C(Nc1ccc(F)cc1F)c1cccnc1Oc1cccc(C(F)(F)F)c1,303.15,0.0001289,propylene glycol,CC(O)CO,10.1021/acs.jced.0c00631
COc1c(C)c2c(c(O)c1C/C=C(\C)CCC(=O)OCCN1CCOCC1)C(=O)OC2,303.15,0.001225,propylene glycol,CC(O)CO,10.1021/acs.jced.9b01139
c1ccc(-c2ccc(C(c3ccccc3)n3ccnc3)cc2)cc1,303.15,0.007073,propylene glycol,CC(O)CO,10.1021/acs.jced.9b00097
COc1cc2c(cc1OC)-c1cc3ccc(OC)c(OC)c3c[n+]1CC2.[Cl-],303.15,3.123e-05,propylene glycol,CC(O)CO,10.1021/acs.jced.8b01055
C[C@@H]1CC[C@H]2[C@@H](C)[C@H](OC(=O)CCC(=O)O)O[C@@H]3O[C@@]4(C)CC[C@@H]1[C@@]23OO4,303.15,0.002374,propylene glycol,CC(O)CO,10.1021/acs.jced.8b00988
COc1ccc([C@@H]2CC(=O)c3c(O)cc(O[C@@H]4O[C@H](CO[C@@H]5O[C@@H](C)[C@H](O)[C@@H](O)[C@H]5O)[C@@H](O)[C@H](O)[C@H]4O)cc3O2)cc1O,303.15,0.000647,propylene glycol,CC(O)CO,10.1021/acs.jced.7b00948
COc1c(O)cc2c(c1O)[C@@H]1O[C@H](CO)[C@@H](O)[C@H](O)[C@H]1OC2=O,303.15,0.00873,propylene glycol,CC(O)CO,10.1016/j.jct.2016.05.003
NCCCC(=O)O,303.15,0.03232,propylene glycol,CC(O)CO,10.1016/j.jct.2016.07.014
CC1(C)CCC2=C(O1)c1ccccc1C(=O)C2=O,303.15,0.00308,propylene glycol,CC(O)CO,10.1016/j.fluid.2018.05.005
CN1C(C(=O)Nc2ccccn2)=C(O)c2sccc2S1(=O)=O,303.15,0.0131,PEG-400,-,10.1021/acs.jced.5b00382
COc1ccc([C@@H]2CC(=O)c3c(O)cc(O[C@@H]4O[C@H](CO[C@@H]5O[C@@H](C)[C@H](O)[C@@H](O)[C@H]5O)[C@@H](O)[C@H](O)[C@H]4O)cc3O2)cc1O,303.15,0.00749,PEG-400,-,10.1021/je500206w
CN1CC(=O)N2C(CC3c4ccccc4NC3C2C2CCC3OCOC3C2)C1=O,303.15,0.02143,PEG-400,-,10.1021/je400982r
COc1c(O)cc2c(c1O)[C@@H]1O[C@H](CO)[C@@H](O)[C@H](O)[C@H]1OC2=O,303.15,0.0277,PEG-400,-,10.1016/j.jct.2016.05.003
CN1C(C(=O)Nc2ccccn2)=C(O)c2sccc2S1(=O)=O,303.15,0.00202,transcutol,CCOCCOCCO,10.1021/acs.jced.5b00382
CN1CC(=O)N2C(CC3c4ccccc4NC3C2C2CCC3OCOC3C2)C1=O,303.15,0.00973,transcutol,CCOCCOCCO,10.1021/je400982r
CC(=O)Nc1ccc(O)cc1,303.15,0.1185,transcutol,CCOCCOCCO,10.1021/je4008525
COc1c(O)cc2c(c1O)[C@@H]1O[C@H](CO)[C@@H](O)[C@H](O)[C@H]1OC2=O,303.15,0.0166,transcutol,CCOCCOCCO,10.1016/j.jct.2016.05.003
O=P(Oc1ccccc1)(Oc1ccccc1)N1CCN(P(=O)(Oc2ccccc2)Oc2ccccc2)CC1,303.15,0.0005643,1-propoxy-2-propanol,CCCOCC(C)O,10.1021/je501173n
O=P(NCc1cccc(CNP(=O)(Oc2ccccc2)Oc2ccccc2)c1)(Oc1ccccc1)Oc1ccccc1,303.15,0.0007656,1-propoxy-2-propanol,CCCOCC(C)O,10.1021/je501173n
O=P12OCC(CO)(CO1)CO2,303.15,0.0033414,1-propoxy-2-propanol,CCCOCC(C)O,10.1021/je501173n
O=P(Oc1ccccc1)(Oc1ccccc1)N1CCN(P(=O)(Oc2ccccc2)Oc2ccccc2)CC1,303.15,0.0005172,1-methoxy-2-propyl acetate,COCC(C)OC(C)=O,10.1021/je501173n
O=P(NCc1cccc(CNP(=O)(Oc2ccccc2)Oc2ccccc2)c1)(Oc1ccccc1)Oc1ccccc1,303.15,0.0043041,1-methoxy-2-propyl acetate,COCC(C)OC(C)=O,10.1021/je501173n
O=P12OCC(CO)(CO1)CO2,303.15,0.0011312,1-methoxy-2-propyl acetate,COCC(C)OC(C)=O,10.1021/je501173n
O=P(Oc1ccccc1)(Oc1ccccc1)N1CCN(P(=O)(Oc2ccccc2)Oc2ccccc2)CC1,303.15,0.0013929,2-(2-methoxypropoxy) propanol,COC(C)COC(C)COC(C)CO,10.1021/je501173n
O=P(NCc1cccc(CNP(=O)(Oc2ccccc2)Oc2ccccc2)c1)(Oc1ccccc1)Oc1ccccc1,303.15,0.0040132,2-(2-methoxypropoxy) propanol,COC(C)COC(C)COC(C)CO,10.1021/je501173n
O=P12OCC(CO)(CO1)CO2,303.15,0.015132,2-(2-methoxypropoxy) propanol,COC(C)COC(C)COC(C)CO,10.1021/je501173n
O=[N+]([O-])N1CN2CN(C1)CN([N+](=O)[O-])C2,303.15,1.22858e-08,"1,1-dichloroethane",CC(Cl)Cl,10.1021/acs.jced.5b00033
CCCCCCN1C=CN(C)C1.O=[N+]([O-])O,303.15,0.000268,n-octane,CCCCCCCC,10.1021/je200151j
CCCCCCCCN1C=CN(C)C1.O=[N+]([O-])O,303.15,0.000502,n-octane,CCCCCCCC,10.1021/je200151j
CCCCCCN1C=CN(C)C1.O=[N+]([O-])O,303.15,0.00145,o-xylene,Cc1ccccc1C,10.1021/je200151j
CCCCCCCCN1C=CN(C)C1.O=[N+]([O-])O,303.15,0.00529,o-xylene,Cc1ccccc1C,10.1021/je200151j
c1ccc2oc(CSCc3nc4ccccc4o3)nc2c1,303.15,0.00305,o-xylene,Cc1ccccc1C,10.1021/je8005419
O=C(O)c1ccccc1,303.15,0.0853,o-xylene,Cc1ccccc1C,10.1016/j.jct.2020.106234
c1ccc2c(c1)oc1ccccc12,303.15,0.1832,diisopropyl ether,CC(C)OC(C)C,10.1021/je201282d
O=C1c2ccccc2-c2ccccc21,303.15,0.0642,diisopropyl ether,CC(C)OC(C)C,10.1021/je201282d
Cc1ccc[n+](CCCC[n+]2cccc(C)c2)c1.F[P-](F)(F)(F)(F)F.F[P-](F)(F)(F)(F)F,303.15,0.001025,acetophenone,CC(=O)c1ccccc1,10.1021/je9010954
O=C(O)c1ccc(C(=O)O)cc1,303.15,1.07e-05,acetophenone,CC(=O)c1ccccc1,10.1021/je9001976
O=C(O)c1cccc(C(=O)O)c1,303.15,0.0007249,acetophenone,CC(=O)c1ccccc1,10.1021/je9001976
O=C(O)c1cccc(C(=O)O)c1,303.15,0.002929,"1,2-diethoxyethane",CCOCCOCC,10.1021/je9001976
Nc1cc(Cl)ccc1C(=O)O,303.15,0.0004182,ethyl benzene,CCc1ccccc1,10.1016/j.jct.2016.11.019
COc1cc(Cl)nc(N)n1,303.15,0.002385,ethyl benzene,CCc1ccccc1,10.1016/j.jct.2016.10.020
O=C(NC[C@H]1CN(c2ccc(N3CCOCC3=O)cc2)C(=O)O1)c1ccc(Cl)s1,303.15,6.27e-05,2-hexanone,CCCCC(C)=O,10.1016/j.jct.2016.09.036
NCCCC(=O)O,303.15,0.009136,"1,3-propanediol",OCCCO,10.1016/j.jct.2016.07.014
Cc1nc2n(c(=O)c1CCN1CCC(c3noc4cc(F)ccc34)CC1)CCCC2,303.15,0.00309,cumene,CC(C)c1ccccc1,10.1016/j.fluid.2014.04.028