SMILES,"T,K",Solubility,Solvent,SMILES_Solvent,Source
CC(CCc1ccccc1)NCC(O)c1ccc(O)c(C(N)=O)c1.Cl,303.15,0.000675,n-butanol,CCCCO,10.1021/acs.jced.1c00432
COc1cc2c(cc1OC)C(=O)CC2,303.15,0.035216,n-butanol,CCCCO,10.1021/acs.jced.1c00040
CC(=O)NCC(=O)O,303.15,0.003262,n-butanol,CCCCO,10.1021/acs.jced.0c00983
CC(=O)N1CCC[C@H]1C(=O)O,303.15,0.0877,n-butanol,CCCCO,10.1021/acs.jced.1c00032
CCCOC(=O)c1ccc(O)cc1,303.15,0.2362,n-butanol,CCCCO,10.1021/acs.jced.0c00584
CNCCC(Oc1ccc(C(F)(F)F)cc1)c1ccccc1.Cl,303.15,0.01381,n-butanol,CCCCO,10.1021/acs.jced.0c00513
C=CC(=O)NC(C)(C)CS(=O)(=O)O,303.15,0.006485,n-butanol,CCCCO,10.1021/acs.jced.0c00578
O=C(O)Cc1ccccc1[N+](=O)[O-],303.15,0.03228,n-butanol,CCCCO,10.1021/acs.jced.0c00543
O=C(O)Cc1ccc([N+](=O)[O-])cc1,303.15,0.08772,n-butanol,CCCCO,10.1021/acs.jced.0c00182
N[C@@H](CS)C(=O)O,303.15,8.2e-05,n-butanol,CCCCO,10.1021/acs.jced.0c00031
Oc1ccc(OCc2ccccc2)cc1,303.15,0.05429,n-butanol,CCCCO,10.1021/acs.jced.9b00817
O=C([O-])/C=C/C(=O)O.[Na+],303.15,5.97e-05,n-butanol,CCCCO,10.1021/acs.jced.9b01203
COC(=O)C1=C(C)NC(C)=C(C(=O)OCC(C)C)C1c1ccccc1[N+](=O)[O-],303.15,0.01292,n-butanol,CCCCO,10.1021/acs.jced.9b01036
O=C[C@H](O)[C@H](O)[C@H](O)CO,303.15,0.0081397,n-butanol,CCCCO,10.1021/acs.jced.0c00009
Oc1c(Br)cc(Br)c2cccnc12,303.15,0.0002793,n-butanol,CCCCO,10.1021/acs.jced.9b01190
CC(=O)N[C@@H](CC(C)C)C(=O)O,303.15,0.02907,n-butanol,CCCCO,10.1021/acs.jced.9b01151
CN(C)Cc1c[nH]c2ccccc12,303.15,0.05648,n-butanol,CCCCO,10.1021/acs.jced.9b00911
CN(C)Cc1c[nH]c2ccccc12,303.15,0.002729,n-butanol,CCCCO,10.1021/acs.jced.9b01063
C[C@H](N)C(=O)O,303.15,0.000517,n-butanol,CCCCO,10.1021/acs.jced.9b00743
COc1cc([N+](=O)[O-])ccc1N,303.15,0.003715,n-butanol,CCCCO,10.1021/acs.jced.9b00991
O=Cc1ccc(O)c(Br)c1,303.15,0.02298,n-butanol,CCCCO,10.1021/acs.jced.9b01004
CCCc1ncc(C[n+]2ccccc2C)c(N)n1.Cl.[Cl-],303.15,7.53e-05,n-butanol,CCCCO,10.1021/acs.jced.9b00999
Nc1ccc(Cl)cc1[N+](=O)[O-],303.15,0.02147,n-butanol,CCCCO,10.1021/acs.jced.9b00919
OC[C@H]1O[C@@H](Oc2ccc(O)cc2)[C@H](O)[C@@H](O)[C@@H]1O,303.15,0.0007496,n-butanol,CCCCO,10.1021/acs.jced.9b00703
NC(N)=NC(N)=NCCc1ccccc1,303.15,0.001665,n-butanol,CCCCO,10.1021/acs.jced.9b00844
CN1CCN(c2c(F)cc3c(=O)c(C(=O)O)cn4c3c2OCN4C)CC1,303.15,0.0001691,n-butanol,CCCCO,10.1021/acs.jced.9b00490
Nc1c(Cl)cc([N+](=O)[O-])cc1Cl,303.15,0.003081,n-butanol,CCCCO,10.1021/acs.jced.9b00778
CN(C)[C@@H]1C(=O)C(C(N)=O)=C(O)[C@@]2(O)C(=O)C3=C(O)c4c(O)cccc4C[C@H]3C[C@@H]12,303.15,9.508e-05,n-butanol,CCCCO,10.1021/acs.jced.9b00693
N[C@H](Cc1c[nH]cn1)C(=O)O,303.15,0.001052,n-butanol,CCCCO,10.1021/acs.jced.9b00659
O=P(O)(O)c1ccccc1,303.15,0.26001,n-butanol,CCCCO,10.1021/acs.jced.9b00362
OCc1ccc(O[C@@H]2O[C@H](CO)[C@@H](O)[C@H](O)[C@H]2O)cc1,303.15,0.0557,n-butanol,CCCCO,10.1021/acs.jced.9b00286
N=C(N)NC(N)=S,303.15,0.002255,n-butanol,CCCCO,10.1021/acs.jced.9b00458
O=C(O)C=CC(=O)O.OCCOCCN1CCN(C2=Nc3ccccc3Sc3ccccc32)CC1.OCCOCCN1CCN(C2=Nc3ccccc3Sc3ccccc32)CC1,303.15,0.000502,n-butanol,CCCCO,10.1021/acs.jced.7b00518
O=C1C=CC(=O)N1c1ccccc1Br,303.15,0.01469,n-butanol,CCCCO,10.1021/acs.jced.9b00560
c1cc(-n2c3ccccc3c3ccccc32)cc(-n2c3ccccc3c3ccccc32)c1,303.15,0.000217,n-butanol,CCCCO,10.1021/acs.jced.9b00432
N[C@@H](CO)C(=O)O,303.15,1.3e-05,n-butanol,CCCCO,10.1021/acs.jced.9b00460
Cc1nc(N)nc(N)n1,303.15,0.000919,n-butanol,CCCCO,10.1021/acs.jced.9b00593
N[C@@H](Cc1c[nH]c2ccccc12)C(=O)O,303.15,0.0002,n-butanol,CCCCO,10.1021/acs.jced.9b00562
Cc1cnc(C(=O)O)cn1,303.15,2.19e-05,n-butanol,CCCCO,10.1021/acs.jced.9b00406
Nc1nnn[nH]1,303.15,0.000755,n-butanol,CCCCO,10.1021/acs.jced.9b00385
Sc1nc2ccccc2[nH]1,303.15,0.00941,n-butanol,CCCCO,10.1021/acs.jced.9b00190
Cc1c(C(=O)O)cc([N+](=O)[O-])cc1[N+](=O)[O-],303.15,0.01785,n-butanol,CCCCO,10.1021/acs.jced.9b00497
CC(=NC#N)N(C)Cc1ccc(Cl)nc1,303.15,0.003369,n-butanol,CCCCO,10.1021/acs.jced.9b00294
CC(=O)c1c(C)c([N+](=O)[O-])c(C(C)(C)C)c([N+](=O)[O-])c1C,303.15,0.008115,n-butanol,CCCCO,10.1021/acs.jced.9b00310
N#Cc1cccc([N+](=O)[O-])c1C#N,303.15,0.001003,n-butanol,CCCCO,10.1021/acs.jced.8b01250
O=Cc1cc([N+](=O)[O-])ccc1O,303.15,0.002226,n-butanol,CCCCO,10.1021/acs.jced.9b00232
CC1=NNC(=O)N(/N=C/c2cccnc2)C1,303.15,0.0003894,n-butanol,CCCCO,10.1021/acs.jced.9b00229
N[C@H](Cc1c[nH]c2ccccc12)C(=O)O,303.15,4.809e-05,n-butanol,CCCCO,10.1021/acs.jced.9b00258
N[C@@H](Cc1ccc(O)cc1)C(=O)O,303.15,2.87e-06,n-butanol,CCCCO,10.1021/acs.jced.9b00258
N[C@H](CC(=O)O)C(=O)O,303.15,0.0003407,n-butanol,CCCCO,10.1021/acs.jced.9b00320
N#CCc1ccccc1[N+](=O)[O-],303.15,0.01294,n-butanol,CCCCO,10.1021/acs.jced.9b00243
Nc1cc([N+](=O)[O-])ccc1Cl,303.15,0.0182,n-butanol,CCCCO,10.1021/acs.jced.8b00931
CCOC(=O)[C@@H](C)Oc1ccc(Oc2cnc3cc(Cl)ccc3n2)cc1,303.15,0.009896,n-butanol,CCCCO,10.1021/acs.jced.8b01181
N#CCC(N)=O,303.15,0.006669,n-butanol,CCCCO,10.1021/acs.jced.8b01205
Cc1cccc(C(=O)O)c1N,303.15,0.03019,n-butanol,CCCCO,10.1021/acs.jced.8b01226
NC(=O)c1ccc([N+](=O)[O-])cc1,303.15,0.001162,n-butanol,CCCCO,10.1021/acs.jced.9b00065
Nc1nc2c(ncn2COC(CO)CO)c(=O)[nH]1,303.15,0.000284,n-butanol,CCCCO,10.1021/acs.jced.8b01080
O=C(O)Cc1c[nH]c2ccccc12,303.15,3.6e-05,n-butanol,CCCCO,10.1021/acs.jced.8b01265
CC#C[C@]1(O)CC[C@H]2[C@@H]3CCC4=CC(=O)CCC4=C3[C@@H](c3ccc(N(C)C)cc3)C[C@@]21C,303.15,0.000612,n-butanol,CCCCO,10.1021/acs.jced.8b01062
NC(=O)c1ccc(N)cc1,303.15,0.003447,n-butanol,CCCCO,10.1021/acs.jced.8b01144
CC(=O)N(CC(O)CO)c1c(I)c(C(=O)NCC(O)CO)c(I)c(C(=O)NCC(O)CO)c1I,303.15,0.0004999,n-butanol,CCCCO,10.1021/acs.jced.8b01101
CC(C)N1C(=O)N(c2ccccc2)CSC1=NC(C)(C)C,303.15,0.03639,n-butanol,CCCCO,10.1021/acs.jced.8b01099
COC(=O)Nc1nc2ccc(C(=O)c3ccc(F)cc3)cc2[nH]1,303.15,5.639e-05,n-butanol,CCCCO,10.1021/acs.jced.8b01126
Cc1nc(C)c(C)nc1C,303.15,0.2618,n-butanol,CCCCO,10.1021/acs.jced.8b00888
Nc1nc(Cl)c2[nH]cnc2n1,303.15,0.0002756,n-butanol,CCCCO,10.1021/acs.jced.8b01014
COc1c(N2CCNC(C)C2)c(F)cc2c(=O)c(C(=O)O)cn(C3CC3)c12,303.15,0.002604,n-butanol,CCCCO,10.1021/acs.jced.8b00902
CCOC(=O)C1=C[C@]2(CC)CCCN3CCc4c(n1c1ccccc41)[C@@H]32,303.15,0.0028501,n-butanol,CCCCO,10.1021/acs.jced.8b00663
N#CCc1ccc([N+](=O)[O-])cc1,303.15,0.003876,n-butanol,CCCCO,10.1021/acs.jced.8b00811
COc1ccc(Cl)cc1C(=O)NCCc1ccc(S(=O)(=O)NC(=O)NC2CCCCC2)cc1,303.15,0.00033369,n-butanol,CCCCO,10.1021/acs.jced.8b00717
O=C(O)c1cc2ccccc2cc1O,303.15,0.03458,n-butanol,CCCCO,10.1021/acs.jced.8b00578
CS(=O)(=O)O.Cc1ccc(NC(=O)c2ccc(CN3CCN(C)CC3)cc2)cc1Nc1nccc(-c2cccnc2)n1,303.15,7.51e-05,n-butanol,CCCCO,10.1021/acs.jced.8b00551
Cc1ccc(S(N)(=O)=O)cc1,303.15,0.0403,n-butanol,CCCCO,10.1021/acs.jced.7b00714
Cc1ccccc1S(N)(=O)=O,303.15,0.03162,n-butanol,CCCCO,10.1021/acs.jced.7b00714
N#Cc1cccc([N+](=O)[O-])c1,303.15,0.006831,n-butanol,CCCCO,10.1021/acs.jced.7b00615
CS(=O)(=O)c1ccc([C@@H](O)[C@@H](CO)NC(=O)C(Cl)Cl)cc1,303.15,6.393e-05,n-butanol,CCCCO,10.1021/acs.jced.7b00542
NC(=O)c1cccnc1,303.15,0.0415867,n-butanol,CCCCO,10.1021/acs.jced.8b00560
O=C(O)c1c(O)cccc1O,303.15,0.25975,n-butanol,CCCCO,10.1021/acs.jced.6b00957
O=C(c1ccccc1)C(O)c1ccccc1,303.15,0.00267,n-butanol,CCCCO,10.1021/acs.jced.7b00238
COc1cc(C(=O)O)cc(OC)c1O,303.15,0.00624,n-butanol,CCCCO,10.1021/acs.jced.7b00333
COc1ccc(CN2CCNCC2)c(OC)c1OC.Cl,303.15,0.000263,n-butanol,CCCCO,10.1021/acs.jced.8b00235
O=c1nc[nH]c2[nH]ncc12,303.15,0.0001837,n-butanol,CCCCO,10.1021/acs.jced.8b00430
Cc1cc(C)nc(Nc2ccccc2)n1,303.15,0.04981,n-butanol,CCCCO,10.1021/acs.jced.8b00124
O=C(O)Cc1ccccc1Cl,303.15,0.3143,n-butanol,CCCCO,10.1021/acs.jced.8b00139
Nc1ccc(S(=O)(=O)Nc2ccc(Cl)nn2)cc1,303.15,0.005309,n-butanol,CCCCO,10.1021/acs.jced.7b01134
CS(=O)(=O)c1ccc([C@@H](O)[C@@H](CF)NC(=O)C(Cl)Cl)cc1,303.15,0.001398,n-butanol,CCCCO,10.1021/acs.jced.8b00043
O=C(c1ccccc1)c1ccccc1,303.15,0.3538,n-butanol,CCCCO,10.1021/acs.jced.8b00196
O=C(c1ccccc1)C(O)c1ccccc1,303.15,0.002737,n-butanol,CCCCO,10.1021/acs.jced.7b00743
Cc1ccc(S(=O)(=O)O)cc1.Cc1ccc(S(=O)(=O)O)cc1.OCCN(CCO)c1nc(N2CCCCC2)c2nc(N(CCO)CCO)nc(N3CCCCC3)c2n1,303.15,0.00037,n-butanol,CCCCO,10.1021/acs.jced.7b00825
CO/C=C(/C(=O)OC)c1ccccc1Oc1cc(Oc2ccccc2C#N)ncn1,303.15,0.00149,n-butanol,CCCCO,10.1021/acs.jced.7b00669
O=[N+]([O-])N1C2C3N([N+](=O)[O-])C1C1N([N+](=O)[O-])C(C(N1[N+](=O)[O-])N3[N+](=O)[O-])N2[N+](=O)[O-],303.15,0.0002711,n-butanol,CCCCO,10.1021/acs.jced.6b00761
CCCCC1C(=O)N(c2ccccc2)N(c2ccccc2)C1=O,303.15,0.01223,n-butanol,CCCCO,10.1021/acs.jced.6b00911
CCOC(=O)N1CCC(=C2c3ccc(Cl)cc3CCc3cccnc32)CC1,303.15,0.0525,n-butanol,CCCCO,10.1021/acs.jced.6b00721
CO[C@@]1(NC(=O)CSCC#N)C(=O)N2C(C(=O)[O-])=C(CSc3nnnn3C)CS[C@@H]21.[Na+],303.15,0.000124,n-butanol,CCCCO,10.1021/acs.jced.6b00741
CC(=O)c1ccc(S(C)(=O)=O)cc1,303.15,0.016,n-butanol,CCCCO,10.1021/acs.jced.6b00617
COC(=O)c1c(C)cc(O)c(C)c1O,303.15,0.1153,n-butanol,CCCCO,10.1021/acs.jced.6b00646
CNC(=O)c1cc(Oc2ccc(NC(=O)Nc3ccc(Cl)c(C(F)(F)F)c3)cc2)ccn1,303.15,0.001298,n-butanol,CCCCO,10.1021/acs.jced.6b00630
CNC(=O)c1cc(Oc2ccc(NC(=O)Nc3ccc(Cl)c(C(F)(F)F)c3)cc2)ccn1.Cc1ccc(S(=O)(=O)O)cc1,303.15,0.0002379,n-butanol,CCCCO,10.1021/acs.jced.6b00630
O=C(O)/C=C/c1ccc(O)cc1,303.15,0.0432,n-butanol,CCCCO,10.1021/acs.jced.6b00361
O=[N+]([O-])c1c[nH]nc1[N+](=O)[O-],303.15,0.348024,n-butanol,CCCCO,10.1021/acs.jced.6b00219
CCOC(=O)c1ccc(N)cc1,303.15,0.0981,n-butanol,CCCCO,10.1021/acs.jced.6b00037
CS(=O)(=O)c1ccc(C=O)cc1,303.15,0.001404,n-butanol,CCCCO,10.1021/acs.jced.5b01053
COc1cc(C(=O)O)ccc1O,303.15,0.0309,n-butanol,CCCCO,10.1021/acs.jced.5b00619
O=[N+]([O-])c1cccc(S(=O)(=O)[O-])c1.[Na+],303.15,0.0006396,n-butanol,CCCCO,10.1021/acs.jced.5b00783
O=[N+]([O-])c1ccc(S(=O)(=O)[O-])cc1.[Na+],303.15,0.0006986,n-butanol,CCCCO,10.1021/acs.jced.5b00783
Clc1cc(Cl)cc(Cl)c1,303.15,0.1499,n-butanol,CCCCO,10.1021/acs.jced.5b00607
O=S(=O)(c1ccc(O)cc1)c1ccc(O)cc1,303.15,0.001019,n-butanol,CCCCO,10.1021/acs.jced.5b00714
O=Cc1ccc2ccccc2c1,303.15,0.07581,n-butanol,CCCCO,10.1021/acs.jced.5b00377
CN1C(C(=O)Nc2ccccn2)=C(O)c2sccc2S1(=O)=O,303.15,0.000105,n-butanol,CCCCO,10.1021/acs.jced.5b00382
COC(=O)[C@H](c1ccccc1Cl)N1CCc2sccc2C1.O=S(=O)(O)O,303.15,0.08695,n-butanol,CCCCO,10.1021/acs.jced.5b00306
Nc1ccc(Cc2ccc(N)cc2)cc1,303.15,0.0296,n-butanol,CCCCO,10.1021/je501111d
C=C1C[C@]23C[C@H]1CC[C@H]2[C@@]12CC[C@H](O)[C@@](C)(C(=O)O1)[C@H]2[C@@H]3C(=O)O,303.15,0.079769,n-butanol,CCCCO,10.1021/acs.jced.5b00190
COc1ccc(C(=O)O)c(OC)c1,303.15,0.0188,n-butanol,CCCCO,10.1021/je501045s
C[C@@H]1O[C@@H](O[C@H]2[C@H](Oc3cc(O)c4c(c3)O[C@H](c3ccc(O)cc3)CC4=O)O[C@H](CO)[C@@H](O)[C@@H]2O)[C@H](O)[C@H](O)[C@H]1O,303.15,0.00010541,n-butanol,CCCCO,10.1021/je501004g
O=C1CC(c2ccc(O)cc2)Oc2cc(O)cc(O)c21,303.15,0.0021472,n-butanol,CCCCO,10.1021/je501004g
c1ccc2c(c1)sc1ccccc12,303.15,0.016027,n-butanol,CCCCO,10.1021/je500437m
C=CC1=C(C(=O)O)N2C(=O)[C@@H](NC(=O)/C(=N\OCC(=O)O)c3csc(N)n3)[C@H]2SC1.O.O.O,303.15,0.002001,n-butanol,CCCCO,10.1021/je5000605
COc1ccc([C@@H]2CC(=O)c3c(O)cc(O[C@@H]4O[C@H](CO[C@@H]5O[C@@H](C)[C@H](O)[C@@H](O)[C@H]5O)[C@@H](O)[C@H](O)[C@H]4O)cc3O2)cc1O,303.15,0.000359,n-butanol,CCCCO,10.1021/je500206w
O=[N+]([O-])c1ccc(Cl)c(Cl)c1,303.15,0.1357,n-butanol,CCCCO,10.1021/je401044h
O=[N+]([O-])c1cccc(Cl)c1Cl,303.15,0.06788,n-butanol,CCCCO,10.1021/je401044h
OC(Cn1cncn1)(Cn1cncn1)c1ccc(F)cc1F,303.15,0.0066,n-butanol,CCCCO,10.1021/je4010257
CC[C@H]1OC(=O)[C@H](C)[C@@H](O[C@H]2C[C@@](C)(OC)[C@@H](O)[C@H](C)O2)[C@H](C)[C@@H](O[C@@H]2O[C@H](C)C[C@H](N(C)C)[C@H]2O)[C@](C)(O)C[C@@H](C)CN(C)[C@H](C)[C@@H](O)[C@]1(C)O.O,303.15,0.0324,n-butanol,CCCCO,10.1021/je400899e
CCNc1nc(Cl)nc(NC(C)C)n1,303.15,0.0068329,n-butanol,CCCCO,10.1021/je400639m
CC1=C(C(=O)O)N2C(=O)[C@@H](NC(=O)[C@H](N)C3=CCC=CC3)[C@H]2SC1,303.15,0.000567,n-butanol,CCCCO,10.1021/je400218d
Nc1cccnn1,303.15,0.0218,n-butanol,CCCCO,10.1021/je300517q
c1ccc2c(c1)oc1ccccc12,303.15,0.0671,n-butanol,CCCCO,10.1021/je201282d
O=C1c2ccccc2-c2ccccc21,303.15,0.0685,n-butanol,CCCCO,10.1021/je201282d
Nc1cc(N2CCCCC2)nc(N)[n+]1[O-],303.15,0.00736,n-butanol,CCCCO,10.1021/je1012839
C[C@@H]1[C@H]2C3=CC[C@@H]4[C@@]5(C)C[C@@H](O)[C@H](O)[C@@](C)(CO)[C@@H]5CC[C@@]4(C)[C@]3(C)CC[C@@]2(C(=O)O[C@@H]2O[C@H](CO[C@@H]3O[C@H](CO)[C@@H](O[C@@H]4O[C@@H](C)[C@H](O)[C@@H](O)[C@H]4O)[C@H](O)[C@H]3O)[C@@H](O)[C@H](O)[C@H]2O)CC[C@H]1C,303.15,2.93e-05,n-butanol,CCCCO,10.1021/je101208p
O=C(O)CC(O)(CC(=O)O)C(=O)O,303.15,0.1056,n-butanol,CCCCO,10.1021/je101167z
N[C@@H](Cc1ccc([N+](=O)[O-])cc1[N+](=O)[O-])C(=O)O,303.15,4.281e-06,n-butanol,CCCCO,10.1021/je100352r
Nc1ccc(S(N)(=O)=O)cc1,303.15,0.002027,n-butanol,CCCCO,10.1021/je900038m
O=C(Oc1ccccc1)c1ccccc1O,303.15,0.3404,n-butanol,CCCCO,10.1021/je800668j
C1CN2CCN1CC2,303.15,0.409,n-butanol,CCCCO,10.1021/je8005375
C1=Cc2cccc3cccc1c23,303.15,0.028995,n-butanol,CCCCO,10.1021/je700347h
C1CN2CCN1CC2,303.15,0.00755,n-butanol,CCCCO,10.1021/je700186v
CC(=O)Oc1ccc(C(c2ccc(OC(C)=O)cc2)c2ccccn2)cc1,303.15,0.000223,n-butanol,CCCCO,10.1021/acs.jced.9b00728
N#CC(c1ccc(Cl)cc1)c1c(Cl)cc(-n2ncc(=O)[nH]c2=O)cc1Cl,303.15,0.001417,n-butanol,CCCCO,10.1021/acs.jced.9b00353
FC(F)(F)c1cccnc1Cl,303.15,0.5102,n-butanol,CCCCO,10.1021/acs.jced.8b00989
CCCN(CCC)S(=O)(=O)c1ccc(C(=O)O)cc1,303.15,0.01585,n-butanol,CCCCO,10.1021/acs.jced.8b00863
COC(=O)[C@H](N)c1ccc(O)cc1,303.15,0.0022441,n-butanol,CCCCO,10.1021/acs.jced.6b00415
S=C(Nc1ccccc1)Nc1ccccc1,303.15,0.003424,n-butanol,CCCCO,10.1016/j.jct.2021.106605
O=C(O)COc1ccc(Cl)cc1Cl,303.15,0.146,n-butanol,CCCCO,10.1016/j.jct.2021.106589
Nc1nc2ccc(OC(F)(F)F)cc2s1,303.15,0.254,n-butanol,CCCCO,10.1016/j.jct.2021.106569
CC(=O)Nc1ccc(C(=O)O)cc1,303.15,0.00812,n-butanol,CCCCO,10.1016/j.jct.2021.106478
CN1CCN(C2=Nc3cc(Cl)ccc3Nc3ccccc32)CC1,303.15,0.01288,n-butanol,CCCCO,10.1016/j.jct.2021.106398
CN1CCN(C2=Nc3cc(Cl)ccc3Nc3ccccc32)CC1,303.15,0.01406,n-butanol,CCCCO,10.1016/j.jct.2021.106451
CCCCN(CCCC)CC(O)c1cc(Cl)cc2c1-c1ccc(Cl)cc1/C2=C/c1ccc(Cl)cc1,303.15,0.0006497,n-butanol,CCCCO,10.1016/j.jct.2020.106323
COCCOC(=O)C1=C(C)NC(C)=C(C(=O)OC(C)C)C1c1cccc([N+](=O)[O-])c1,303.15,0.01766,n-butanol,CCCCO,10.1016/j.jct.2020.106259
O=C(O)CCc1nc(-c2ccccc2)c(-c2ccccc2)o1,303.15,0.008,n-butanol,CCCCO,10.1016/j.jct.2020.106239
CC(C)Oc1ccc2c(=O)c(-c3ccccc3)coc2c1,303.15,0.006455,n-butanol,CCCCO,10.1016/j.jct.2020.106231
COC(=O)Nc1nc2ccc(Sc3ccccc3)cc2[nH]1,303.15,0.0001203,n-butanol,CCCCO,10.1016/j.jct.2019.07.018
Cl.c1ccc([C@H]2CN3CCSC3=N2)cc1,303.15,0.005421,n-butanol,CCCCO,10.1016/j.jct.2019.105882
Cc1c([N+](=O)[O-])c(C)c([N+](=O)[O-])c(C(C)(C)C)c1[N+](=O)[O-],303.15,0.006656,n-butanol,CCCCO,10.1016/j.jct.2019.03.029
Cc1c(C(N)=O)cc([N+](=O)[O-])cc1[N+](=O)[O-],303.15,0.002013,n-butanol,CCCCO,10.1016/j.jct.2019.01.013
O=C1c2cccc(O)c2C(=O)c2c(O)cc(CO)cc21,303.15,0.0001016,n-butanol,CCCCO,10.1016/j.jct.2016.02.020
S=c1[nH]c2ccccc2s1,303.15,0.03862,n-butanol,CCCCO,10.1016/j.jct.2017.05.013
Cc1cc(C)[nH]n1,303.15,0.2114,n-butanol,CCCCO,10.1016/j.jct.2017.02.011
Cc1ccc(N)c([N+](=O)[O-])c1,303.15,0.02966,n-butanol,CCCCO,10.1016/j.jct.2017.02.008
COc1cc(CO)ccc1O,303.15,0.0393,n-butanol,CCCCO,10.1016/j.jct.2016.11.030
Clc1ccc2c(c1)Nc1ccccc1S2,303.15,0.004922,n-butanol,CCCCO,10.1016/j.jct.2016.11.029
Nc1ccc([N+](=O)[O-])cc1N,303.15,0.001041,n-butanol,CCCCO,10.1016/j.jct.2016.11.014
Nc1cc(Cl)ccc1C(=O)O,303.15,0.01839,n-butanol,CCCCO,10.1016/j.jct.2016.11.019
Cc1cc([N+](=O)[O-])ccc1N,303.15,0.01448,n-butanol,CCCCO,10.1016/j.jct.2016.10.037
O=Cc1cccc([N+](=O)[O-])c1,303.15,0.0973,n-butanol,CCCCO,10.1016/j.jct.2016.10.040
CC(C)C(=O)OCC(=O)[C@@]12O[C@H](C3CCCCC3)O[C@@H]1C[C@H]1[C@@H]3CCC4=CC(=O)C=C[C@]4(C)[C@H]3[C@@H](O)C[C@@]12C,303.15,0.105,n-butanol,CCCCO,10.1016/j.jct.2016.10.014
NC(=O)N1c2ccccc2CC(=O)c2ccccc21,303.15,0.000479,n-butanol,CCCCO,10.1016/j.jct.2016.09.011
O=Cc1ccc([N+](=O)[O-])cc1,303.15,0.02247,n-butanol,CCCCO,10.1016/j.jct.2016.09.012
C[C@@H]1O[C@@H](OC[C@H]2O[C@@H](Oc3c(-c4ccc(OCCO)c(OCCO)c4)oc4cc(OCCO)cc(O)c4c3=O)[C@H](O)[C@@H](O)[C@@H]2O)[C@H](O)[C@H](O)[C@H]1O,303.15,0.000187,n-butanol,CCCCO,10.1016/j.jct.2016.09.015
O=Cc1ccc(C=O)cc1,303.15,0.02609,n-butanol,CCCCO,10.1016/j.jct.2016.07.013
C=CC(=O)N1CCC[C@@H](n2nc(-c3ccc(Oc4ccccc4)cc3)c3c(N)ncnc32)C1,303.15,0.00423,n-butanol,CCCCO,10.1016/j.jct.2016.08.034
CC1=NN(c2ccc(C)cc2)C(=O)C1,303.15,0.04438,n-butanol,CCCCO,10.1016/j.jct.2016.08.007
O=[N+]([O-])c1ccc(O)c2ncccc12,303.15,0.001525,n-butanol,CCCCO,10.1016/j.jct.2016.04.018
Cc1ccc(C(C)C)c(O)c1,303.15,0.6133,n-butanol,CCCCO,10.1016/j.jct.2015.09.010
COc1ccc2nc(S(=O)Cc3ncc(C)c(OC)c3C)[nH]c2c1,303.15,0.003702,n-butanol,CCCCO,10.1016/j.jct.2015.11.005
O=C1NC(=O)c2ccccc21,303.15,0.003365,n-butanol,CCCCO,10.1016/j.jct.2015.10.024
COC(=O)N(OC)c1ccccc1COc1ccn(-c2ccc(Cl)cc2)n1,303.15,0.02143,n-butanol,CCCCO,10.1016/j.jct.2016.05.005
COc1c(O)cc2c(c1O)[C@@H]1O[C@H](CO)[C@@H](O)[C@H](O)[C@H]1OC2=O,303.15,0.000404,n-butanol,CCCCO,10.1016/j.jct.2016.05.003
O=S(=O)(c1ccc(O)cc1)c1ccccc1O,303.15,0.06944,n-butanol,CCCCO,10.1016/j.jct.2016.07.001
Cc1cc(C(=O)O)ccc1[N+](=O)[O-],303.15,0.01249,n-butanol,CCCCO,10.1016/j.jct.2016.07.023
CC(=O)O[C@H]1CC[C@@]2(C)C(=CC[C@H]3[C@@H]4CCC(=O)[C@@]4(C)CC[C@@H]32)C1,303.15,0.012613,n-butanol,CCCCO,10.1016/j.jct.2016.01.023
N=C(Nc1ccccc1)Nc1ccccc1,303.15,0.04309,n-butanol,CCCCO,10.1016/j.jct.2016.03.011
C/C=C/C=C/C(=O)O,303.15,0.10791,n-butanol,CCCCO,10.1016/j.jct.2015.02.004
O=[N+]([O-])c1cccc2cccc([N+](=O)[O-])c12,303.15,0.0006901,n-butanol,CCCCO,10.1016/j.jct.2015.07.010
CC(C)(C)[C@H](O)[C@H](Cc1ccc(Cl)cc1)n1cncn1,303.15,0.02511,n-butanol,CCCCO,10.1016/j.jct.2016.09.038
CCOC(=O)Cc1c(C(=O)OCC)sc(N)c1C#N,303.15,0.009097,n-butanol,CCCCO,10.1016/j.jct.2015.11.025
O=C1c2cccc(Cl)c2C(=O)N1c1ccccc1,303.15,0.0003879,n-butanol,CCCCO,10.1016/j.jct.2016.01.003
CC(C)(C)C(=O)C(Oc1ccc(Cl)cc1)n1ccnc1,303.15,0.1805,n-butanol,CCCCO,10.1016/j.jct.2014.04.011
CN(C)[C@@H]1C(O)=C(C(N)=O)C(=O)[C@@]2(O)C(O)=C3C(=O)c4c(O)cccc4[C@@](C)(O)[C@H]3C[C@@H]12.Cl,303.15,0.0001883,n-butanol,CCCCO,10.1016/j.jct.2012.08.007
Clc1ncnc2[nH]ccc12,303.15,0.02272,n-butanol,CCCCO,10.1016/j.jct.2021.106493
Nc1nc(N)nc(NC2CC2)n1,303.15,0.001496,n-butanol,CCCCO,10.1016/j.fluid.2018.07.024
Cn1cc([N+](=O)[O-])cn1,303.15,0.005594,n-butanol,CCCCO,10.1016/j.fluid.2018.05.023
CC1(C)CCC2=C(O1)c1ccccc1C(=O)C2=O,303.15,0.00895,n-butanol,CCCCO,10.1016/j.fluid.2018.05.005
Cc1cc(C)c(C(=O)P(=O)(c2ccccc2)c2ccccc2)c(C)c1,303.15,0.236,n-butanol,CCCCO,10.1016/j.fluid.2018.01.015
CCCCCOC(=O)Nc1nc(=O)n([C@@H]2O[C@H](C)[C@@H](O)[C@H]2O)cc1F,303.15,0.016,n-butanol,CCCCO,10.1016/j.fluid.2017.12.024
Cn1nc([N+](=O)[O-])c([N+](=O)[O-])c1[N+](=O)[O-],303.15,0.010541,n-butanol,CCCCO,10.1016/j.fluid.2017.04.008
O=C(O)CN(CC(=O)O)CP(=O)(O)O,303.15,0.0001858,n-butanol,CCCCO,10.1016/j.fluid.2014.08.036
CCn1c2ccccc2c2ccccc21,303.15,0.0316,n-butanol,CCCCO,10.1016/j.fluid.2014.06.030
Cc1nc2n(c(=O)c1CCN1CCC(c3noc4cc(F)ccc34)CC1)CCCC2,303.15,0.004427,n-butanol,CCCCO,10.1016/j.fluid.2014.04.028
O=C1C=CC(=O)O1,303.15,0.02359,n-butanol,CCCCO,10.1016/j.fluid.2014.01.008
C/C=C/C(=O)O,303.15,0.3773,n-butanol,CCCCO,10.1016/j.fluid.2013.06.038
COC(=O)[C@@H](N)CS.Cl,303.15,0.00093,acetone,CC(C)=O,10.1021/acs.jced.0c00795
O=C(Nc1ccccc1)c1ccccc1,303.15,0.024635,acetone,CC(C)=O,10.1021/acs.jced.0c00167
Nc1ccc(S(N)(=O)=O)cc1,303.15,0.097548,acetone,CC(C)=O,10.1021/acs.jced.9b00411
O=C1CC[C@@H](C(=O)N2CSC[C@H]2C(=O)O)N1,303.15,0.000249,acetone,CC(C)=O,10.1021/acs.jced.0c00616
CCOC(=O)[C@@H](C)Oc1ccc(Oc2cnc3cc(Cl)ccc3n2)cc1,303.15,0.03188,acetone,CC(C)=O,10.1021/acs.jced.1c00092
Cc1cc(Cl)cc(C(=O)O)c1N,303.15,0.022705,acetone,CC(C)=O,10.1021/acs.jced.1c00047
N=C(N)NCCC[C@H](N)C(=O)O.O=C1CC[C@@H](C(=O)O)N1,303.15,4.7e-05,acetone,CC(C)=O,10.1021/acs.jced.0c01074
CSCCC(NC(C)=O)C(=O)O,303.15,0.03698,acetone,CC(C)=O,10.1021/acs.jced.1c00064
O=C(O)[C@@H]1C[C@@H](O)CN1,303.15,0.002054,acetone,CC(C)=O,10.1021/acs.jced.0c00794
CN1COCN(Cc2cnc(Cl)s2)/C1=N/[N+](=O)[O-],303.15,0.014,acetone,CC(C)=O,10.1021/acs.jced.0c00752
O=Cc1cc(C=O)cc(C=O)c1,303.15,0.019093,acetone,CC(C)=O,10.1021/acs.jced.0c00776
OCC(O)COc1ccc(Cl)cc1,303.15,0.1639,acetone,CC(C)=O,10.1021/acs.jced.0c00900
O=C(O)[C@@H]1CSCN1,303.15,0.000537,acetone,CC(C)=O,10.1021/acs.jced.0c00996
CCOc1ccccc1C(N)=O,303.15,0.022621,acetone,CC(C)=O,10.1021/acs.jced.0c01081