SMILES,"T,K",Solubility,Solvent,SMILES_Solvent,Source
O=C1CCc2cc(OCCCCc3nnnn3C3CCCCC3)ccc2N1,303.15,0.001866,acetonitrile,CC#N,10.1021/acs.jced.1c00302
CCOC(=O)[C@@H]1CSCN1.Cl,303.15,0.002517,acetonitrile,CC#N,10.1021/acs.jced.1c00079
CC(C)(C)OC(=O)N1CCC[C@H]1C(=O)O,303.15,0.024722,acetonitrile,CC#N,10.1021/acs.jced.1c00201
O=C(O)c1cccc(C(=O)O)n1,303.15,0.000453,acetonitrile,CC#N,10.1021/acs.jced.1c00200
CNC(=O)c1cc(Oc2ccc(N)cc2)ccn1,303.15,0.07369,acetonitrile,CC#N,10.1021/acs.jced.1c00232
Nc1cccc(C(=O)O)c1,303.15,0.003576,acetonitrile,CC#N,10.1021/acs.jced.1c00247
O=C(N[C@H](C(=O)O)c1ccccc1)OCc1ccccc1,303.15,0.014255,acetonitrile,CC#N,10.1021/acs.jced.1c00240
CCO.C[C@H]1c2cccc(O)c2C(O)=C2C(=O)[C@]3(O)C(O)=C(C(N)=O)C(=O)[C@@H](N(C)C)[C@@H]3[C@@H](O)[C@@H]21.C[C@H]1c2cccc(O)c2C(O)=C2C(=O)[C@]3(O)C(O)=C(C(N)=O)C(=O)[C@@H](N(C)C)[C@@H]3[C@@H](O)[C@@H]21.Cl.Cl.O,303.15,0.000485,acetonitrile,CC#N,10.1021/acs.jced.0c00097
O=C(O)c1cc([N+](=O)[O-])cc([N+](=O)[O-])c1O,303.15,0.02475,acetonitrile,CC#N,10.1021/acs.jced.0c00122
CC(C)(c1ccc(O)cc1)c1ccc(O)cc1,303.15,0.1854,acetonitrile,CC#N,10.1021/acs.jced.0c00166
O=c1cc(CBr)c2ccccc2[nH]1,303.15,0.000171,acetonitrile,CC#N,10.1021/acs.jced.0c00303
OCc1ccccc1O[C@@H]1OC(CO)[C@@H](O)[C@@H](O)C1O,303.15,7.321e-05,acetonitrile,CC#N,10.1021/acs.jced.0c00332
OC[C@H]1O[C@@H](Oc2ccc(O)cc2)[C@H](O)[C@@H](O)[C@@H]1O,303.15,0.000145,acetonitrile,CC#N,10.1021/acs.jced.0c00353
CC(=O)NCC(=O)O,303.15,0.000409,acetonitrile,CC#N,10.1021/acs.jced.0c00983
CC(=O)N1CCC[C@H]1C(=O)O,303.15,0.05577,acetonitrile,CC#N,10.1021/acs.jced.1c00032
NC1CCSC1=O,303.15,0.000135,acetonitrile,CC#N,10.1021/acs.jced.0c01089
CCCOC(=O)c1ccc(O)cc1,303.15,0.1018,acetonitrile,CC#N,10.1021/acs.jced.0c00584
C=CC(=O)NC(C)(C)CS(=O)(=O)O,303.15,0.0002648,acetonitrile,CC#N,10.1021/acs.jced.0c00578
O=C(O)Cc1ccccc1[N+](=O)[O-],303.15,0.02554,acetonitrile,CC#N,10.1021/acs.jced.0c00543
O=[N+]([O-])N(CCO)CCO.O=[N+]([O-])O.O=[N+]([O-])O,303.15,0.45571,acetonitrile,CC#N,10.1021/acs.jced.0c00211
O=C(O)Cc1ccc([N+](=O)[O-])cc1,303.15,0.0375,acetonitrile,CC#N,10.1021/acs.jced.0c00182
N[C@@H](CS)C(=O)O,303.15,2.3e-05,acetonitrile,CC#N,10.1021/acs.jced.0c00031
Oc1ccc(OCc2ccccc2)cc1,303.15,0.08207,acetonitrile,CC#N,10.1021/acs.jced.9b00817
O=C([O-])/C=C/C(=O)O.[Na+],303.15,5.58e-05,acetonitrile,CC#N,10.1021/acs.jced.9b01203
COC(=O)C1=C(C)NC(C)=C(C(=O)OCC(C)C)C1c1ccccc1[N+](=O)[O-],303.15,0.01969,acetonitrile,CC#N,10.1021/acs.jced.9b01036
O=c1[nH]c2ccccc2c(=O)o1,303.15,0.004302,acetonitrile,CC#N,10.1021/acs.jced.9b01164
O=C[C@H](O)[C@H](O)[C@H](O)CO,303.15,0.002196,acetonitrile,CC#N,10.1021/acs.jced.0c00009
Cc1c(Br)cccc1C(=O)O,303.15,0.00779,acetonitrile,CC#N,10.1021/acs.jced.9b01007
O=[N+]([O-])N1CN([N+](=O)[O-])CN([N+](=O)[O-])CN([N+](=O)[O-])C1,303.15,0.0028,acetonitrile,CC#N,10.1021/acs.jced.9b01192
CC(=O)N[C@@H](CC(C)C)C(=O)O,303.15,0.001628,acetonitrile,CC#N,10.1021/acs.jced.9b01151
CN(C)Cc1c[nH]c2ccccc12,303.15,0.01161,acetonitrile,CC#N,10.1021/acs.jced.9b00911
C[C@H](N)C(=O)O,303.15,0.000157,acetonitrile,CC#N,10.1021/acs.jced.9b00743
COc1cc([N+](=O)[O-])ccc1N,303.15,0.03447,acetonitrile,CC#N,10.1021/acs.jced.9b00991
O=Cc1ccc(O)c(Br)c1,303.15,0.01525,acetonitrile,CC#N,10.1021/acs.jced.9b01004
CCCc1ncc(C[n+]2ccccc2C)c(N)n1.Cl.[Cl-],303.15,2.35e-05,acetonitrile,CC#N,10.1021/acs.jced.9b00999
Nc1ccc(Cl)cc1[N+](=O)[O-],303.15,0.07499,acetonitrile,CC#N,10.1021/acs.jced.9b00919
O=C(O)c1cccnc1Cl,303.15,0.003987,acetonitrile,CC#N,10.1021/acs.jced.9b00661
O=C(O)[C@@H]1CCCN1,303.15,7.8e-05,acetonitrile,CC#N,10.1021/acs.jced.9b00802
OC[C@H]1O[C@@H](Oc2ccc(O)cc2)[C@H](O)[C@@H](O)[C@@H]1O,303.15,0.0001628,acetonitrile,CC#N,10.1021/acs.jced.9b00703
NC(N)=NC(N)=NCCc1ccccc1,303.15,0.000596,acetonitrile,CC#N,10.1021/acs.jced.9b00844
CN1CCN(c2c(F)cc3c(=O)c(C(=O)O)cn4c3c2OCN4C)CC1,303.15,0.00025,acetonitrile,CC#N,10.1021/acs.jced.9b00490
Nc1c(Cl)cc([N+](=O)[O-])cc1Cl,303.15,0.003525,acetonitrile,CC#N,10.1021/acs.jced.9b00778
CN(C)[C@@H]1C(=O)C(C(N)=O)=C(O)[C@@]2(O)C(=O)C3=C(O)c4c(O)cccc4C[C@H]3C[C@@H]12,303.15,0.0001881,acetonitrile,CC#N,10.1021/acs.jced.9b00693
OCc1ccc(O[C@@H]2O[C@H](CO)[C@@H](O)[C@H](O)[C@H]2O)cc1,303.15,0.00147,acetonitrile,CC#N,10.1021/acs.jced.9b00286
O=[N+]([O-])c1ncccc1O,303.15,0.2989,acetonitrile,CC#N,10.1021/acs.jced.9b00564
N=C(N)NC(N)=S,303.15,0.006881,acetonitrile,CC#N,10.1021/acs.jced.9b00458
CC1(C)COP(=O)(Oc2cccc(OP3(=O)OCC(C)(C)CO3)c2)OC1,303.15,0.01534,acetonitrile,CC#N,10.1021/acs.jced.7b00695
O=C1C=CC(=O)N1c1ccccc1Br,303.15,0.07226,acetonitrile,CC#N,10.1021/acs.jced.9b00560
C[C@]12CCC3=C4CCC(=O)C=C4CC[C@H]3[C@@H]1CC[C@@]2(O)CC#N,303.15,0.00313,acetonitrile,CC#N,10.1021/acs.jced.9b00696
c1cc(-n2c3ccccc3c3ccccc32)cc(-n2c3ccccc3c3ccccc32)c1,303.15,0.000363,acetonitrile,CC#N,10.1021/acs.jced.9b00432
N[C@@H](CO)C(=O)O,303.15,0.000198,acetonitrile,CC#N,10.1021/acs.jced.9b00460
Cc1nc(N)nc(N)n1,303.15,0.0002285,acetonitrile,CC#N,10.1021/acs.jced.9b00593
N[C@@H](Cc1c[nH]c2ccccc12)C(=O)O,303.15,5e-05,acetonitrile,CC#N,10.1021/acs.jced.9b00562
Cc1cnc(C(=O)O)cn1,303.15,6.05e-06,acetonitrile,CC#N,10.1021/acs.jced.9b00406
Nc1nnn[nH]1,303.15,0.00028,acetonitrile,CC#N,10.1021/acs.jced.9b00385
Sc1nc2ccccc2[nH]1,303.15,0.00183,acetonitrile,CC#N,10.1021/acs.jced.9b00190
Cc1c(C(=O)O)cc([N+](=O)[O-])cc1[N+](=O)[O-],303.15,0.012,acetonitrile,CC#N,10.1021/acs.jced.9b00497
Cc1n[nH]c2cc([N+](=O)[O-])ccc12,303.15,0.0174,acetonitrile,CC#N,10.1021/acs.jced.8b01256
NS(=O)(=O)c1ccccc1,303.15,0.07227,acetonitrile,CC#N,10.1021/acs.jced.9b00360
O=Cc1cc([N+](=O)[O-])ccc1O,303.15,0.01258,acetonitrile,CC#N,10.1021/acs.jced.9b00232
N[C@H](Cc1c[nH]c2ccccc12)C(=O)O,303.15,0.0001276,acetonitrile,CC#N,10.1021/acs.jced.9b00258
N[C@@H](Cc1ccc(O)cc1)C(=O)O,303.15,7.714e-06,acetonitrile,CC#N,10.1021/acs.jced.9b00258
NS(=O)(=O)c1cc2c(cc1Cl)NCNS2(=O)=O,303.15,0.003823,acetonitrile,CC#N,10.1021/acs.jced.9b00220
N#CCc1ccccc1[N+](=O)[O-],303.15,0.1954,acetonitrile,CC#N,10.1021/acs.jced.9b00243
Nc1cc([N+](=O)[O-])ccc1Cl,303.15,0.0671,acetonitrile,CC#N,10.1021/acs.jced.8b00931
CCOC(=O)[C@@H](C)Oc1ccc(Oc2cnc3cc(Cl)ccc3n2)cc1,303.15,0.06073,acetonitrile,CC#N,10.1021/acs.jced.8b01181
N#CCC(N)=O,303.15,0.04688,acetonitrile,CC#N,10.1021/acs.jced.8b01205
Cc1cccc(C(=O)O)c1N,303.15,0.05401,acetonitrile,CC#N,10.1021/acs.jced.8b01226
NC(=O)c1ccc([N+](=O)[O-])cc1,303.15,0.001549,acetonitrile,CC#N,10.1021/acs.jced.9b00065
Nc1nc2c(ncn2COC(CO)CO)c(=O)[nH]1,303.15,1.994e-05,acetonitrile,CC#N,10.1021/acs.jced.8b01080
Nc1cccc2c(N)cccc12,303.15,0.006948,acetonitrile,CC#N,10.1021/acs.jced.8b01214
Nc1cccc2cccc(N)c12,303.15,0.1664,acetonitrile,CC#N,10.1021/acs.jced.8b01214
C[C@@H](O)[C@H]1C(=O)N2C(C(=O)[O-])=C(SC3Cn4cnc[n+]4C3)[C@H](C)[C@H]12,303.15,5.821e-05,acetonitrile,CC#N,10.1021/acs.jced.8b01051
O=C(O)Cc1c[nH]c2ccccc12,303.15,9.364e-06,acetonitrile,CC#N,10.1021/acs.jced.8b01265
NC(=O)c1ccc(N)cc1,303.15,0.002982,acetonitrile,CC#N,10.1021/acs.jced.8b01144
CC(=O)N(CC(O)CO)c1c(I)c(C(=O)NCC(O)CO)c(I)c(C(=O)NCC(O)CO)c1I,303.15,0.0001752,acetonitrile,CC#N,10.1021/acs.jced.8b01101
CC(C)N1C(=O)N(c2ccccc2)CSC1=NC(C)(C)C,303.15,0.02845,acetonitrile,CC#N,10.1021/acs.jced.8b01099
Cc1nc(C)c(C)nc1C,303.15,0.08882,acetonitrile,CC#N,10.1021/acs.jced.8b00888
COc1c(N2CCNC(C)C2)c(F)cc2c(=O)c(C(=O)O)cn(C3CC3)c12,303.15,0.003222,acetonitrile,CC#N,10.1021/acs.jced.8b00902
N#CCc1ccc([N+](=O)[O-])cc1,303.15,0.08987,acetonitrile,CC#N,10.1021/acs.jced.8b00811
COc1ccc(Cl)cc1C(=O)NCCc1ccc(S(=O)(=O)NC(=O)NC2CCCCC2)cc1,303.15,0.00016293,acetonitrile,CC#N,10.1021/acs.jced.8b00717
NNC(=O)c1ccncc1,303.15,0.00169,acetonitrile,CC#N,10.1021/acs.jced.8b00785
CC[C@@H](C(N)=O)N1CCCC1=O,303.15,0.02032,acetonitrile,CC#N,10.1021/acs.jced.8b00720
CCOC(=O)[C@H](CCc1ccccc1)N[C@@H](C)C(=O)O,303.15,0.001295,acetonitrile,CC#N,10.1021/acs.jced.8b00333
CCOC(=O)[C@H](CCc1ccccc1)N[C@@H](C)C(=O)N1CCC[C@H]1C(=O)O.O=C(O)/C=C\C(=O)O,303.15,0.001534,acetonitrile,CC#N,10.1021/acs.jced.8b00333
CS(=O)(=O)O.Cc1ccc(NC(=O)c2ccc(CN3CCN(C)CC3)cc2)cc1Nc1nccc(-c2cccnc2)n1,303.15,3.7e-05,acetonitrile,CC#N,10.1021/acs.jced.8b00551
Cc1ccc(S(N)(=O)=O)cc1,303.15,0.118,acetonitrile,CC#N,10.1021/acs.jced.7b00714
Cc1ccccc1S(N)(=O)=O,303.15,0.05335,acetonitrile,CC#N,10.1021/acs.jced.7b00714
N#Cc1cccc([N+](=O)[O-])c1,303.15,0.1164,acetonitrile,CC#N,10.1021/acs.jced.7b00615
CS(=O)(=O)c1ccc([C@@H](O)[C@@H](CO)NC(=O)C(Cl)Cl)cc1,303.15,0.0005023,acetonitrile,CC#N,10.1021/acs.jced.7b00542
Nc1nc(Cl)cc(Cl)n1,303.15,0.003145,acetonitrile,CC#N,10.1021/acs.jced.8b00292
On1nnc2ccccc21,303.15,0.005309,acetonitrile,CC#N,10.1021/acs.jced.7b00316
COc1ccc(CN2CCNCC2)c(OC)c1OC.Cl,303.15,1.897e-05,acetonitrile,CC#N,10.1021/acs.jced.8b00235
O=c1nc[nH]c2[nH]ncc12,303.15,0.0002386,acetonitrile,CC#N,10.1021/acs.jced.8b00430
COc1ccc(CC(=O)O)cc1,303.15,0.0803,acetonitrile,CC#N,10.1021/acs.jced.8b00271
CC(=O)c1cccc([N+](=O)[O-])c1,303.15,0.233,acetonitrile,CC#N,10.1021/acs.jced.8b00192
CC(=O)c1ccc([N+](=O)[O-])cc1,303.15,0.2437,acetonitrile,CC#N,10.1021/acs.jced.8b00192
O=C(O)Cc1ccccc1Cl,303.15,0.1993,acetonitrile,CC#N,10.1021/acs.jced.8b00139
Nc1ccc(S(=O)(=O)Nc2ccc(Cl)nn2)cc1,303.15,0.02243,acetonitrile,CC#N,10.1021/acs.jced.7b01134
O=C(c1ccccc1)c1ccccc1,303.15,0.5426,acetonitrile,CC#N,10.1021/acs.jced.8b00196
Cc1ccc(NC(=O)/C(=C/Cl)Sc2ccccc2)cc1,303.15,0.0148,acetonitrile,CC#N,10.1021/acs.jced.7b01011
O=C(c1ccccc1)C(O)c1ccccc1,303.15,0.007873,acetonitrile,CC#N,10.1021/acs.jced.7b00743
O=[N+]([O-])N1C2C3N([N+](=O)[O-])C1C1N([N+](=O)[O-])C(C(N1[N+](=O)[O-])N3[N+](=O)[O-])N2[N+](=O)[O-],303.15,0.05593,acetonitrile,CC#N,10.1021/acs.jced.6b00664
CCCCC1C(=O)N(c2ccccc2)N(c2ccccc2)C1=O,303.15,0.11199,acetonitrile,CC#N,10.1021/acs.jced.6b00911
CCOC(=O)N1CCC(=C2c3ccc(Cl)cc3CCc3cccnc32)CC1,303.15,0.007475,acetonitrile,CC#N,10.1021/acs.jced.6b00721
O=C1NC23NC(=O)NC2(N1)C(=O)NC3=O,303.15,3.6e-05,acetonitrile,CC#N,10.1021/acs.jced.6b00349
O=C1NC(=O)c2cc([N+](=O)[O-])ccc21,303.15,0.006794,acetonitrile,CC#N,10.1021/acs.jced.6b00230
CS(=O)(=O)c1ccc(C=O)cc1,303.15,0.01367,acetonitrile,CC#N,10.1021/acs.jced.5b01053
O=S(=O)(c1ccc(O)cc1)c1ccc(O)cc1,303.15,0.0101,acetonitrile,CC#N,10.1021/acs.jced.5b00714
O=C1OC(=O)c2c(Cl)cccc21,303.15,0.1228,acetonitrile,CC#N,10.1021/acs.jced.5b00526
O=C1OC(=O)c2cc(Cl)ccc21,303.15,0.1936,acetonitrile,CC#N,10.1021/acs.jced.5b00526
C=C1C[C@]23C[C@H]1CC[C@H]2[C@@]12CC[C@H](O)[C@@](C)(C(=O)O1)[C@H]2[C@@H]3C(=O)O,303.15,0.009065,acetonitrile,CC#N,10.1021/acs.jced.5b00190
O=P(NCc1ccccc1)(Oc1ccccc1)Oc1ccccc1,303.15,0.0264,acetonitrile,CC#N,10.1021/acs.jced.5b00007
O=[N+]([O-])N1CN2CN(C1)CN([N+](=O)[O-])C2,303.15,2.25782e-07,acetonitrile,CC#N,10.1021/acs.jced.5b00033
CCOC(=O)C1(c2ccccc2)CCN(CCC(C#N)(c2ccccc2)c2ccccc2)CC1,303.15,0.006014,acetonitrile,CC#N,10.1021/je5010033
Nc1ccc(S(=O)(=O)O)cc1,303.15,0.000214,acetonitrile,CC#N,10.1021/je500867u
O=C1Nc2ccccc2C1=O,303.15,0.007888,acetonitrile,CC#N,10.1021/je500396b
c1ccc2c(c1)sc1ccccc12,303.15,0.018913,acetonitrile,CC#N,10.1021/je500437m
O=C1N2CN3C(=O)N([N+](=O)[O-])C4C3N(CN3C(=O)N([N+](=O)[O-])C(C23)N1[N+](=O)[O-])C(=O)N4[N+](=O)[O-],303.15,0.000248,acetonitrile,CC#N,10.1021/je500392g
CCN1CCN(c2cc3c(cc2F)c(=O)c(C(=O)O)cn3C2CC2)CC1,303.15,0.0011344,acetonitrile,CC#N,10.1021/je5002158
O=C1O[B-]2(OC1=O)OC(=O)C(=O)O2.[Li+],303.15,0.00869,acetonitrile,CC#N,10.1021/je500068b
CCOc1nc2cccc(C(=O)OC(C)OC(=O)OC3CCCCC3)c2n1Cc1ccc(-c2ccccc2-c2nnn[nH]2)cc1,303.15,0.00091,acetonitrile,CC#N,10.1021/je101020m
CC(C)(C)C(=O)C(Oc1ccc(Cl)cc1)n1cncn1,303.15,0.019623,acetonitrile,CC#N,10.1021/je901024t
C[C@H](CS)C(=O)N1CCC[C@H]1C(=O)O,303.15,0.04379,acetonitrile,CC#N,10.1021/je900401z
Cn1[nH]c(=O)c(=O)[nH]c1=S,303.15,0.002683,acetonitrile,CC#N,10.1021/je900177h
CCCCC(=O)N(Cc1ccc(-c2ccccc2-c2nn[nH]n2)cc1)[C@H](C(=O)O)C(C)C,303.15,0.0197,acetonitrile,CC#N,10.1021/je8007815
C[C@@H]1CC[C@H]2[C@@H](C)C(=O)O[C@@H]3O[C@@]4(C)CC[C@@H]1[C@]32OO4,303.15,0.00072319,acetonitrile,CC#N,10.1021/je800515w
OCC(CO)(CO)CO,303.15,7.726e-05,acetonitrile,CC#N,10.1021/acs.jced.1c00080
CCOC(=O)C1(c2ccccc2)CCN(CCC(C#N)(c2ccccc2)c2ccccc2)CC1,303.15,0.005903,acetonitrile,CC#N,10.1021/acs.jced.0c00267
O=Cc1ccc(O)c(Br)c1,303.15,0.01525,acetonitrile,CC#N,10.1021/acs.jced.0c00043
Nc1c(Cl)cc([N+](=O)[O-])cc1Cl,303.15,0.003525,acetonitrile,CC#N,10.1021/acs.jced.0c00199
CC1=NN(c2ccccc2)C(=O)C1,303.15,0.02178,acetonitrile,CC#N,10.1021/acs.jced.9b00881
CC(=O)Oc1ccc(C(c2ccc(OC(C)=O)cc2)c2ccccn2)cc1,303.15,0.002425,acetonitrile,CC#N,10.1021/acs.jced.9b00728
C[C@H]1COc2c(N3CCN(C)CC3)c(F)c(N)c3c(=O)c(C(=O)O)cn1c23.Cl,303.15,5.36e-06,acetonitrile,CC#N,10.1021/acs.jced.9b00717
Nc1cccc2c1CN(C1CCC(=O)NC1=O)C2=O,303.15,0.000558,acetonitrile,CC#N,10.1021/acs.jced.9b00331
N#CC(c1ccc(Cl)cc1)c1c(Cl)cc(-n2ncc(=O)[nH]c2=O)cc1Cl,303.15,0.01573,acetonitrile,CC#N,10.1021/acs.jced.9b00353
O=S(=O)(c1ccc(O)cc1)c1ccc(O)cc1,303.15,0.0101,acetonitrile,CC#N,10.1021/acs.jced.6b00421
c1ccc2[nH]c(-c3cscn3)nc2c1,303.15,0.0002132,acetonitrile,CC#N,10.1016/j.jct.2021.106616
O=C(O)COc1ccc(Cl)cc1Cl,303.15,0.0572,acetonitrile,CC#N,10.1016/j.jct.2021.106589
Nc1nc2ccc(OC(F)(F)F)cc2s1,303.15,0.26683,acetonitrile,CC#N,10.1016/j.jct.2021.106569
Cn1c(=O)cc(N2CCC[C@@H](N)C2)n(Cc2ccccc2C#N)c1=O.O=C(O)c1ccccc1,303.15,0.000368,acetonitrile,CC#N,10.1016/j.jct.2021.106474
CC(=O)Nc1ccc(C(=O)O)cc1,303.15,0.000653,acetonitrile,CC#N,10.1016/j.jct.2021.106478
CN1CCN(C2=Nc3cc(Cl)ccc3Nc3ccccc32)CC1,303.15,0.003436,acetonitrile,CC#N,10.1016/j.jct.2021.106451
CN(C)c1ccc(O)c2c1C[C@H]1C[C@H]3[C@H](N(C)C)C(O)=C(C(N)=O)C(=O)[C@@]3(O)C(O)=C1C2=O.Cl,303.15,5.96e-05,acetonitrile,CC#N,10.1016/j.jct.2021.106399
COCCOC(=O)C1=C(C)NC(C)=C(C(=O)OC(C)C)C1c1cccc([N+](=O)[O-])c1,303.15,0.003654,acetonitrile,CC#N,10.1016/j.jct.2020.106259
CC#CCn1c(N2CCC[C@@H](N)C2)nc2c1c(=O)n(Cc1nc(C)c3ccccc3n1)c(=O)n2C,303.15,0.001318,acetonitrile,CC#N,10.1016/j.jct.2020.106273
O=Cc1cc(Br)c(O)c(Br)c1,303.15,0.004517,acetonitrile,CC#N,10.1016/j.jct.2020.106252
CC(C)Oc1ccc2c(=O)c(-c3ccccc3)coc2c1,303.15,0.009422,acetonitrile,CC#N,10.1016/j.jct.2020.106231
N#Cc1ccc2c(c1)OCO2,303.15,0.1728,acetonitrile,CC#N,10.1016/j.jct.2020.106191
Cn1c(=O)c2c(ncn2CC2OCCO2)n(C)c1=O,303.15,0.02091,acetonitrile,CC#N,10.1016/j.jct.2020.106126
CN1COCN(Cc2cnc(Cl)s2)C1=N[N+](=O)[O-],303.15,0.01834,acetonitrile,CC#N,10.1016/j.jct.2020.106116
COc1ccccc1N1CCN(CC(O)COc2cccc3ccccc23)CC1,303.15,0.002796,acetonitrile,CC#N,10.1016/j.jct.2019.105969
Cc1ccc(NC(=O)c2ccc(CN3CCN(C)CC3)cc2)cc1Nc1nccc(-c2cccnc2)n1,303.15,6.271e-05,acetonitrile,CC#N,10.1016/j.jct.2019.106031
COC(=O)Nc1nc2ccc(Sc3ccccc3)cc2[nH]1,303.15,3.064e-05,acetonitrile,CC#N,10.1016/j.jct.2019.07.018
Cc1c(C(N)=O)cc([N+](=O)[O-])cc1[N+](=O)[O-],303.15,0.01234,acetonitrile,CC#N,10.1016/j.jct.2019.01.013
c1ccc(-c2nnn[nH]2)cc1,303.15,0.003588,acetonitrile,CC#N,10.1016/j.jct.2017.04.019
S=c1[nH]c2ccccc2s1,303.15,0.01102,acetonitrile,CC#N,10.1016/j.jct.2017.05.013
Cc1cc(C)[nH]n1,303.15,0.07224,acetonitrile,CC#N,10.1016/j.jct.2017.02.011
Cc1ccc(N)c([N+](=O)[O-])c1,303.15,0.07211,acetonitrile,CC#N,10.1016/j.jct.2017.02.008
Nc1ccc(N)c([N+](=O)[O-])c1,303.15,0.03279,acetonitrile,CC#N,10.1016/j.jct.2017.01.006
CC(C)c1ncc[nH]1,303.15,0.04534,acetonitrile,CC#N,10.1016/j.jct.2016.12.028
COc1cc(CO)ccc1O,303.15,0.0262,acetonitrile,CC#N,10.1016/j.jct.2016.11.030
Clc1ccc2c(c1)Nc1ccccc1S2,303.15,0.006003,acetonitrile,CC#N,10.1016/j.jct.2016.11.029
Nc1ccc([N+](=O)[O-])cc1N,303.15,0.004797,acetonitrile,CC#N,10.1016/j.jct.2016.11.014
Nc1cc(Cl)ccc1C(=O)O,303.15,0.003617,acetonitrile,CC#N,10.1016/j.jct.2016.11.019
CC(C)(C)C(O)(CCc1ccc(Cl)cc1)Cn1cncn1,303.15,0.01655,acetonitrile,CC#N,10.1016/j.jct.2016.11.032
Cc1cc([N+](=O)[O-])ccc1N,303.15,0.06506,acetonitrile,CC#N,10.1016/j.jct.2016.10.037
Nc1ccccc1N,303.15,0.09867,acetonitrile,CC#N,10.1016/j.jct.2016.10.018
O=Cc1cccc([N+](=O)[O-])c1,303.15,0.5324,acetonitrile,CC#N,10.1016/j.jct.2016.10.040
CC(C)C(=O)OCC(=O)[C@@]12O[C@H](C3CCCCC3)O[C@@H]1C[C@H]1[C@@H]3CCC4=CC(=O)C=C[C@]4(C)[C@H]3[C@@H](O)C[C@@]12C,303.15,0.0109,acetonitrile,CC#N,10.1016/j.jct.2016.10.014
COc1cc(Cl)nc(N)n1,303.15,0.005232,acetonitrile,CC#N,10.1016/j.jct.2016.10.020
NC(=O)N1c2ccccc2CC(=O)c2ccccc21,303.15,0.00103,acetonitrile,CC#N,10.1016/j.jct.2016.09.011
O=Cc1ccc([N+](=O)[O-])cc1,303.15,0.1297,acetonitrile,CC#N,10.1016/j.jct.2016.09.012
O=C(NC[C@H]1CN(c2ccc(N3CCOCC3=O)cc2)C(=O)O1)c1ccc(Cl)s1,303.15,0.000178,acetonitrile,CC#N,10.1016/j.jct.2016.09.036
Nc1nnc[nH]1,303.15,0.002728,acetonitrile,CC#N,10.1016/j.jct.2016.09.033
C[C@@H]1O[C@@H](OC[C@H]2O[C@@H](Oc3c(-c4ccc(OCCO)c(OCCO)c4)oc4cc(OCCO)cc(O)c4c3=O)[C@H](O)[C@@H](O)[C@@H]2O)[C@H](O)[C@H](O)[C@H]1O,303.15,2.1e-05,acetonitrile,CC#N,10.1016/j.jct.2016.09.015
O=Cc1ccc(C=O)cc1,303.15,0.06921,acetonitrile,CC#N,10.1016/j.jct.2016.07.013
C=CC(=O)N1CCC[C@@H](n2nc(-c3ccc(Oc4ccccc4)cc3)c3c(N)ncnc32)C1,303.15,0.001741,acetonitrile,CC#N,10.1016/j.jct.2016.08.034
CC1=NN(c2ccc(C)cc2)C(=O)C1,303.15,0.01567,acetonitrile,CC#N,10.1016/j.jct.2016.08.007
O=[N+]([O-])c1ccc(O)c2ncccc12,303.15,0.002792,acetonitrile,CC#N,10.1016/j.jct.2016.04.018
Cc1ccc(C(C)C)c(O)c1,303.15,0.7923,acetonitrile,CC#N,10.1016/j.jct.2015.09.010
COc1ccc2nc(S(=O)Cc3ncc(C)c(OC)c3C)[nH]c2c1,303.15,0.003538,acetonitrile,CC#N,10.1016/j.jct.2015.11.005
O=C1NC(=O)c2ccccc21,303.15,0.003854,acetonitrile,CC#N,10.1016/j.jct.2015.10.024
Cc1cccc([N+](=O)[O-])c1N,303.15,0.1325,acetonitrile,CC#N,10.1016/j.jct.2016.05.027
O=S(=O)(c1ccc(O)cc1)c1ccccc1O,303.15,0.02191,acetonitrile,CC#N,10.1016/j.jct.2016.07.001
Cc1cc(C(=O)O)ccc1[N+](=O)[O-],303.15,0.004686,acetonitrile,CC#N,10.1016/j.jct.2016.07.023
CC(=O)O[C@H]1CC[C@@]2(C)C(=CC[C@H]3[C@@H]4CCC(=O)[C@@]4(C)CC[C@@H]32)C1,303.15,0.00992,acetonitrile,CC#N,10.1016/j.jct.2016.01.023
N=C(Nc1ccccc1)Nc1ccccc1,303.15,0.02538,acetonitrile,CC#N,10.1016/j.jct.2016.03.011
C/C=C/C=C/C(=O)O,303.15,0.01486,acetonitrile,CC#N,10.1016/j.jct.2015.02.004
O=[N+]([O-])c1cccc2cccc([N+](=O)[O-])c12,303.15,0.01199,acetonitrile,CC#N,10.1016/j.jct.2015.07.010
CC(C)(C)[C@H](O)[C@H](Cc1ccc(Cl)cc1)n1cncn1,303.15,0.006528,acetonitrile,CC#N,10.1016/j.jct.2016.09.038
CCOC(=O)Cc1c(C(=O)OCC)sc(N)c1C#N,303.15,0.02685,acetonitrile,CC#N,10.1016/j.jct.2015.11.025
O=C1c2cccc(Cl)c2C(=O)N1c1ccccc1,303.15,0.003316,acetonitrile,CC#N,10.1016/j.jct.2016.01.003
CN(C)[C@@H]1C(O)=C(C(N)=O)C(=O)[C@@]2(O)C(O)=C3C(=O)c4c(O)cccc4[C@@](C)(O)[C@H]3C[C@@H]12.Cl,303.15,2.21e-05,acetonitrile,CC#N,10.1016/j.jct.2012.08.007
Clc1ncnc2[nH]ccc12,303.15,0.00615,acetonitrile,CC#N,10.1016/j.jct.2021.106493
Cn1cc([N+](=O)[O-])cn1,303.15,0.006,acetonitrile,CC#N,10.1016/j.fluid.2018.05.023
CC1(C)CCC2=C(O1)c1ccccc1C(=O)C2=O,303.15,0.0209,acetonitrile,CC#N,10.1016/j.fluid.2018.05.005
Cc1cc(C)c(C(=O)P(=O)(c2ccccc2)c2ccccc2)c(C)c1,303.15,0.1968,acetonitrile,CC#N,10.1016/j.fluid.2018.01.015
CCOc1ccccc1C(N)=O,303.15,0.01325,acetonitrile,CC#N,10.1016/j.fluid.2016.08.019
CNC[C@H](O)[C@@H](O)[C@H](O)[C@H](O)CO.Cc1c(Nc2ncccc2C(=O)O)cccc1C(F)(F)F,303.15,0.0001091,acetonitrile,CC#N,10.1016/j.fluid.2015.06.026
O=C1C=CC(=O)O1,303.15,0.0526,acetonitrile,CC#N,10.1016/j.fluid.2014.01.008
C/C=C/C(=O)O,303.15,0.2597,acetonitrile,CC#N,10.1016/j.fluid.2013.06.038
COC(=O)C1CC(=O)C(C(=O)OC)CC1=O,303.15,0.00265,acetonitrile,CC#N,10.1016/j.fluid.2013.06.037
COC(=O)[C@@H](N)CS.Cl,303.15,0.00585,isopropanol,CC(C)O,10.1021/acs.jced.0c00795
CC1(C)NC(=O)NC1=O,303.15,0.06295,isopropanol,CC(C)O,10.1021/acs.jced.9b01020
NS(=O)(=O)Cc1noc2ccccc12,303.15,0.002066,isopropanol,CC(C)O,10.1021/acs.jced.0c00249
CC(=O)Oc1ccccc1C(=O)Nc1ncc([N+](=O)[O-])s1,303.15,0.000436,isopropanol,CC(C)O,10.1021/acs.jced.0c00254
O=Cc1cc(Br)c(O)c(Br)c1,303.15,0.00629,isopropanol,CC(C)O,10.1021/acs.jced.0c00376
CC(=O)Nc1ccc(OC(=O)c2ccccc2OC(C)=O)cc1,303.15,0.000262,isopropanol,CC(C)O,10.1021/acs.jced.0c00301
CCCSc1nc(N[C@@H]2C[C@H]2c2ccc(F)c(F)c2)c2nnn([C@@H]3C[C@H](OCCO)[C@@H](O)[C@H]3O)c2n1,303.15,0.004961,isopropanol,CC(C)O,10.1021/acs.jced.0c00127
O=C(Nc1ccccc1)c1ccccc1,303.15,0.005127,isopropanol,CC(C)O,10.1021/acs.jced.0c00167
Nc1ccc(S(N)(=O)=O)cc1,303.15,0.00232,isopropanol,CC(C)O,10.1021/acs.jced.9b00411