SMILES,"T,K",Solubility,Solvent,SMILES_Solvent,Source
O=c1cc(-c2ccccc2)oc2cc(O)cc(O)c12,303.15,0.0078,ethanol,CCO,10.1021/je5001654
OC[C@H]1O[C@H](O[C@H]2O[C@H](CO)[C@@H](O)[C@H](O)[C@H]2O)[C@H](O)[C@@H](O)[C@@H]1O,303.15,0.0008516,ethanol,CCO,10.1021/je5000428
COC(=O)[C@H](Cc1ccccc1)NC(=O)[C@@H](N)CC(=O)O,303.15,0.0001445,ethanol,CCO,10.1021/je500259m
Nc1cc(Cl)nnc1Cl,303.15,0.017102,ethanol,CCO,10.1021/je401053y
O=C(O)CC(O)(CC(=O)O)C(=O)O,303.15,0.1856,ethanol,CCO,10.1021/je400838e
O=C1CC(c2ccc(O)cc2)Oc2cc(O)cc(O)c21,303.15,1.125e-06,ethanol,CCO,10.1021/je4000718
Nc1cccc(S(=O)(=O)c2cccc(N)c2)c1,303.15,0.004151,ethanol,CCO,10.1016/j.jct.2021.106612
S=C(Nc1ccccc1)Nc1ccccc1,303.15,0.003143,ethanol,CCO,10.1016/j.jct.2021.106605
O=C(O)COc1ccc(Cl)cc1Cl,303.15,0.1671,ethanol,CCO,10.1016/j.jct.2021.106589
CC(=O)Nc1ccc(OC(=O)c2ccccc2OC(C)=O)cc1,303.15,0.0009475,ethanol,CCO,10.1016/j.jct.2021.106517
Nc1nc2ccc(OC(F)(F)F)cc2s1,303.15,0.23629,ethanol,CCO,10.1016/j.jct.2021.106569
Cn1c(=O)cc(N2CCC[C@@H](N)C2)n(Cc2ccccc2C#N)c1=O.O=C(O)c1ccccc1,303.15,0.001021,ethanol,CCO,10.1016/j.jct.2021.106474
CC(=O)Nc1ccc(C(=O)O)cc1,303.15,0.009207,ethanol,CCO,10.1016/j.jct.2021.106478
CN1CCN(C2=Nc3cc(Cl)ccc3Nc3ccccc32)CC1,303.15,0.008104,ethanol,CCO,10.1016/j.jct.2021.106398
CN1CCN(C2=Nc3cc(Cl)ccc3Nc3ccccc32)CC1,303.15,0.008901,ethanol,CCO,10.1016/j.jct.2021.106451
CN(C)c1ccc(O)c2c1C[C@H]1C[C@H]3[C@H](N(C)C)C(O)=C(C(N)=O)C(=O)[C@@]3(O)C(O)=C1C2=O.Cl,303.15,0.00152,ethanol,CCO,10.1016/j.jct.2021.106399
CCN(CC)CCCC(C)Nc1ccnc2cc(Cl)ccc12.O=P(O)(O)O.O=P(O)(O)O,303.15,1.684e-05,ethanol,CCO,10.1016/j.jct.2020.106368
CCCCN(CCCC)CC(O)c1cc(Cl)cc2c1-c1ccc(Cl)cc1/C2=C/c1ccc(Cl)cc1,303.15,0.0002127,ethanol,CCO,10.1016/j.jct.2020.106323
COCCOC(=O)C1=C(C)NC(C)=C(C(=O)OC(C)C)C1c1cccc([N+](=O)[O-])c1,303.15,0.02468,ethanol,CCO,10.1016/j.jct.2020.106259
O=c1cc(CO)occ1O,303.15,0.008934,ethanol,CCO,10.1016/j.jct.2020.106280
CC#CCn1c(N2CCC[C@@H](N)C2)nc2c1c(=O)n(Cc1nc(C)c3ccccc3n1)c(=O)n2C,303.15,0.001631,ethanol,CCO,10.1016/j.jct.2020.106273
O=Cc1cc(Br)c(O)c(Br)c1,303.15,0.005547,ethanol,CCO,10.1016/j.jct.2020.106252
O=C(O)CCc1nc(-c2ccccc2)c(-c2ccccc2)o1,303.15,0.00716,ethanol,CCO,10.1016/j.jct.2020.106239
CC(C)Oc1ccc2c(=O)c(-c3ccccc3)coc2c1,303.15,0.004086,ethanol,CCO,10.1016/j.jct.2020.106231
N#Cc1ccc2c(c1)OCO2,303.15,0.02141,ethanol,CCO,10.1016/j.jct.2020.106191
COc1cccc(C=O)c1O,303.15,0.6146,ethanol,CCO,10.1016/j.jct.2020.106199
Cn1c(=O)c2c(ncn2CC2OCCO2)n(C)c1=O,303.15,0.01201,ethanol,CCO,10.1016/j.jct.2020.106126
O=c1[nH]c(=O)n(C2CCCO2)cc1F,303.15,0.005061,ethanol,CCO,10.1016/j.jct.2020.106090
COc1ccccc1N1CCN(CC(O)COc2cccc3ccccc23)CC1,303.15,0.001975,ethanol,CCO,10.1016/j.jct.2019.105969
CNC[C@H](O)c1cccc(O)c1.Cl,303.15,0.03403,ethanol,CCO,10.1016/j.jct.2019.105959
COC(=O)Nc1nc2ccc(Sc3ccccc3)cc2[nH]1,303.15,6.989e-05,ethanol,CCO,10.1016/j.jct.2019.07.018
Cl.c1ccc([C@H]2CN3CCSC3=N2)cc1,303.15,0.01527,ethanol,CCO,10.1016/j.jct.2019.105882
Cc1c([N+](=O)[O-])c(C)c([N+](=O)[O-])c(C(C)(C)C)c1[N+](=O)[O-],303.15,0.004578,ethanol,CCO,10.1016/j.jct.2019.03.029
Cc1c(C(N)=O)cc([N+](=O)[O-])cc1[N+](=O)[O-],303.15,0.003976,ethanol,CCO,10.1016/j.jct.2019.01.013
N[C@H](Cc1c[nH]c2ccccc12)C(=O)O,303.15,0.0002022,ethanol,CCO,10.1016/j.jct.2018.08.018
O=C1c2cccc(O)c2C(=O)c2c(O)cc(CO)cc21,303.15,4.355e-05,ethanol,CCO,10.1016/j.jct.2016.02.020
Brc1cn[nH]c1,303.15,0.3716,ethanol,CCO,10.1016/j.jct.2017.05.005
O=C(Nc1ccccc1-c1ccc(Cl)cc1)c1cccnc1Cl,303.15,0.002821,ethanol,CCO,10.1016/j.jct.2017.04.017
c1ccc(-c2nnn[nH]2)cc1,303.15,0.02196,ethanol,CCO,10.1016/j.jct.2017.04.019
Clc1ccc(COC(Cn2ccnc2)c2ccc(Cl)cc2Cl)cc1.O=[N+]([O-])O,303.15,0.001533,ethanol,CCO,10.1016/j.jct.2017.03.038
Cc1cc(C)[nH]n1,303.15,0.1787,ethanol,CCO,10.1016/j.jct.2017.02.011
Cc1ccc(N)c([N+](=O)[O-])c1,303.15,0.02282,ethanol,CCO,10.1016/j.jct.2017.02.008
Nc1ccc(N)c([N+](=O)[O-])c1,303.15,0.009577,ethanol,CCO,10.1016/j.jct.2017.01.006
CC(C)c1ncc[nH]1,303.15,0.2726,ethanol,CCO,10.1016/j.jct.2016.12.028
COc1cc(CO)ccc1O,303.15,0.0627,ethanol,CCO,10.1016/j.jct.2016.11.030
Clc1ccc2c(c1)Nc1ccccc1S2,303.15,0.00592,ethanol,CCO,10.1016/j.jct.2016.11.029
Nc1ccc([N+](=O)[O-])cc1N,303.15,0.001599,ethanol,CCO,10.1016/j.jct.2016.11.014
Nc1cc(Cl)ccc1C(=O)O,303.15,0.0221,ethanol,CCO,10.1016/j.jct.2016.11.019
CC(C)(C)C(O)(CCc1ccc(Cl)cc1)Cn1cncn1,303.15,0.03703,ethanol,CCO,10.1016/j.jct.2016.11.032
Cc1cc([N+](=O)[O-])ccc1N,303.15,0.01804,ethanol,CCO,10.1016/j.jct.2016.10.037
Nc1ccccc1N,303.15,0.01841,ethanol,CCO,10.1016/j.jct.2016.10.018
O=Cc1cccc([N+](=O)[O-])c1,303.15,0.1834,ethanol,CCO,10.1016/j.jct.2016.10.040
Cn1cnc([N+](=O)[O-])c1Cl,303.15,0.004559,ethanol,CCO,10.1016/j.jct.2016.10.006
CC(C)C(=O)OCC(=O)[C@@]12O[C@H](C3CCCCC3)O[C@@H]1C[C@H]1[C@@H]3CCC4=CC(=O)C=C[C@]4(C)[C@H]3[C@@H](O)C[C@@]12C,303.15,0.0129,ethanol,CCO,10.1016/j.jct.2016.10.014
COc1cc(Cl)nc(N)n1,303.15,0.004877,ethanol,CCO,10.1016/j.jct.2016.10.020
NC(=O)N1c2ccccc2CC(=O)c2ccccc21,303.15,0.000488,ethanol,CCO,10.1016/j.jct.2016.09.011
O=Cc1ccc([N+](=O)[O-])cc1,303.15,0.03656,ethanol,CCO,10.1016/j.jct.2016.09.012
Nc1nnc[nH]1,303.15,0.03021,ethanol,CCO,10.1016/j.jct.2016.09.033
C[C@@H]1O[C@@H](OC[C@H]2O[C@@H](Oc3c(-c4ccc(OCCO)c(OCCO)c4)oc4cc(OCCO)cc(O)c4c3=O)[C@H](O)[C@@H](O)[C@@H]2O)[C@H](O)[C@H](O)[C@H]1O,303.15,0.000346,ethanol,CCO,10.1016/j.jct.2016.09.015
O=Cc1ccc(C=O)cc1,303.15,0.02467,ethanol,CCO,10.1016/j.jct.2016.07.013
CC1=NN(c2ccc(C)cc2)C(=O)C1,303.15,0.03453,ethanol,CCO,10.1016/j.jct.2016.08.007
O=[N+]([O-])c1ccc(O)c2ncccc12,303.15,0.001394,ethanol,CCO,10.1016/j.jct.2016.04.018
Cc1ccc(C(C)C)c(O)c1,303.15,0.6898,ethanol,CCO,10.1016/j.jct.2015.09.010
COc1ccc2nc(S(=O)Cc3ncc(C)c(OC)c3C)[nH]c2c1,303.15,0.00413,ethanol,CCO,10.1016/j.jct.2015.11.005
O=C1NC(=O)c2ccccc21,303.15,0.003016,ethanol,CCO,10.1016/j.jct.2015.10.024
COC(=O)N(OC)c1ccccc1COc1ccn(-c2ccc(Cl)cc2)n1,303.15,0.01841,ethanol,CCO,10.1016/j.jct.2016.05.005
Cc1cccc([N+](=O)[O-])c1N,303.15,0.02845,ethanol,CCO,10.1016/j.jct.2016.05.027
COc1c(O)cc2c(c1O)[C@@H]1O[C@H](CO)[C@@H](O)[C@H](O)[C@H]1OC2=O,303.15,0.00537,ethanol,CCO,10.1016/j.jct.2016.05.003
O=S(=O)(c1ccc(O)cc1)c1ccccc1O,303.15,0.08499,ethanol,CCO,10.1016/j.jct.2016.07.001
Cc1cc(C(=O)O)ccc1[N+](=O)[O-],303.15,0.0113,ethanol,CCO,10.1016/j.jct.2016.07.023
CN(C)CCOC(c1ccccc1)c1ccccc1.Cl,303.15,0.0774,ethanol,CCO,10.1016/j.jct.2015.09.032
CO/N=C(\C(=O)N[C@@H]1C(=O)N2C(C(=O)O)=C(CSc3nnnn3C)CS[C@H]12)c1csc(N)n1.CO/N=C(\C(=O)N[C@@H]1C(=O)N2C(C(=O)O)=C(CSc3nnnn3C)CS[C@H]12)c1csc(N)n1.Cl,303.15,3.804e-05,ethanol,CCO,10.1016/j.jct.2015.11.024
CC(=O)O[C@H]1CC[C@@]2(C)C(=CC[C@H]3[C@@H]4CCC(=O)[C@@]4(C)CC[C@@H]32)C1,303.15,0.006951,ethanol,CCO,10.1016/j.jct.2016.01.023
N=C(Nc1ccccc1)Nc1ccccc1,303.15,0.03631,ethanol,CCO,10.1016/j.jct.2016.03.011
C#CC(C)(C)NC(=O)c1cc(Cl)cc(Cl)c1,303.15,0.01508,ethanol,CCO,10.1016/j.jct.2016.03.039
C/C=C/C=C/C(=O)O,303.15,0.07469,ethanol,CCO,10.1016/j.jct.2015.02.004
O=C(O)CCCCCCCCCCCC(=O)O,303.15,0.00674,ethanol,CCO,10.1016/j.jct.2015.05.026
O=[N+]([O-])c1cccc2cccc([N+](=O)[O-])c12,303.15,0.0007889,ethanol,CCO,10.1016/j.jct.2015.07.010
CC(C)(C)[C@H](O)[C@H](Cc1ccc(Cl)cc1)n1cncn1,303.15,0.01729,ethanol,CCO,10.1016/j.jct.2016.09.038
CCOC(=O)Cc1c(C(=O)OCC)sc(N)c1C#N,303.15,0.01231,ethanol,CCO,10.1016/j.jct.2015.11.025
Nc1ccc(N2CCOCC2=O)cc1,303.15,0.003927,ethanol,CCO,10.1016/j.jct.2016.01.022
CC(C)(C)C(=O)C(Oc1ccc(Cl)cc1)n1ccnc1,303.15,0.1844,ethanol,CCO,10.1016/j.jct.2014.04.011
O=P([O-])([O-])OC[C@H]1O[C@@H](n2cnc3c(O)ncnc32)[C@H](O)[C@@H]1O.[Na+].[Na+],303.15,0.001224,ethanol,CCO,10.1016/j.jct.2014.04.023
CN(C)[C@@H]1C(O)=C(C(N)=O)C(=O)[C@@]2(O)C(O)=C3C(=O)c4c(O)cccc4[C@@](C)(O)[C@H]3C[C@@H]12.Cl,303.15,0.0011619,ethanol,CCO,10.1016/j.jct.2012.08.007
C[C@H]1[C@H]2[C@H](C[C@H]3[C@@H]4CC=C5C[C@@H](O)CC[C@]5(C)[C@H]4CC[C@@]32C)O[C@]12CC[C@@H](C)CO2,303.15,0.0014409,ethanol,CCO,10.1016/j.jct.2011.11.009
O=C(/C=C/C=C/c1ccc2c(c1)OCO2)N1CCCCC1,303.15,0.00966,ethanol,CCO,10.1016/j.jct.2021.106555
Clc1ncnc2[nH]ccc12,303.15,0.0174,ethanol,CCO,10.1016/j.jct.2021.106493
Nc1nc(N)nc(NC2CC2)n1,303.15,0.001725,ethanol,CCO,10.1016/j.fluid.2018.07.024
Cn1cc([N+](=O)[O-])cn1,303.15,0.006334,ethanol,CCO,10.1016/j.fluid.2018.05.023
CC1(C)CCC2=C(O1)c1ccccc1C(=O)C2=O,303.15,0.00595,ethanol,CCO,10.1016/j.fluid.2018.05.005
Cc1cc(C)c(C(=O)P(=O)(c2ccccc2)c2ccccc2)c(C)c1,303.15,0.2178,ethanol,CCO,10.1016/j.fluid.2018.01.015
O=C1NC(=O)C2C3C=CC(C3)C12,303.15,0.01152,ethanol,CCO,10.1016/j.fluid.2019.112301
Cn1nc([N+](=O)[O-])c([N+](=O)[O-])c1[N+](=O)[O-],303.15,0.020606,ethanol,CCO,10.1016/j.fluid.2017.04.008
CC(=O)NC[C@H]1CN(c2ccc(N3CCOCC3)c(F)c2)C(=O)O1,303.15,0.002141,ethanol,CCO,10.1016/j.fluid.2016.10.021
CCOc1ccccc1C(N)=O,303.15,0.02114,ethanol,CCO,10.1016/j.fluid.2016.08.019
COC(=O)[C@H](N)c1ccccc1.Cl,303.15,0.028,ethanol,CCO,10.1016/j.fluid.2016.02.020
Cc1cc(C)cc(OCC2CNC(=O)O2)c1,303.15,0.0102513,ethanol,CCO,10.1016/j.fluid.2015.09.013
CNC[C@H](O)[C@@H](O)[C@H](O)[C@H](O)CO.Cc1c(Nc2ncccc2C(=O)O)cccc1C(F)(F)F,303.15,0.007753,ethanol,CCO,10.1016/j.fluid.2015.06.026
O=c1ccc2ccccc2o1,303.15,0.08691,ethanol,CCO,10.1016/j.fluid.2015.03.022
N[C@@H](C(=O)N[C@@H]1C(=O)N2C(C(=O)O)=C(Cl)CS[C@H]12)c1ccccc1.O,303.15,6.721e-05,ethanol,CCO,10.1016/j.fluid.2015.01.001
O=C(O)CN(CC(=O)O)CP(=O)(O)O,303.15,7.85e-05,ethanol,CCO,10.1016/j.fluid.2014.08.036
CCn1c2ccccc2c2ccccc21,303.15,0.0182,ethanol,CCO,10.1016/j.fluid.2014.06.030
O=C(O)CC(O)C(=O)O,303.15,0.12,ethanol,CCO,10.1016/j.fluid.2014.06.017
Cc1nc2n(c(=O)c1CCN1CCC(c3noc4cc(F)ccc34)CC1)CCCC2,303.15,0.00248,ethanol,CCO,10.1016/j.fluid.2014.04.028
CCN1CCN(C(=O)N[C@@H](C(=O)N[C@@H]2C(=O)N3C(C(=O)O)=C(CSc4nnnn4C)CS[C@H]23)c2ccc(O)cc2)C(=O)C1=O,303.15,4.568e-05,ethanol,CCO,10.1016/j.fluid.2013.11.005
CC1(C)CO[P+]([O-])(Oc2c(Br)cc(Br)cc2Br)OC1,303.15,0.00358,ethanol,CCO,10.1016/j.fluid.2013.09.023
Nc1ccc(Oc2ccc(N)cc2)cc1,303.15,0.00113,ethanol,CCO,10.1016/j.fluid.2013.07.010
C/C=C/C(=O)O,303.15,0.4034,ethanol,CCO,10.1016/j.fluid.2013.06.038
COC(=O)C1CC(=O)C(C(=O)OC)CC1=O,303.15,0.00056,ethanol,CCO,10.1016/j.fluid.2013.06.037
COC(=O)[C@@H](N)CS.Cl,303.15,0.01449,n-propanol,CCCO,10.1021/acs.jced.0c00795
CC1(C)NC(=O)NC1=O,303.15,0.05429,n-propanol,CCCO,10.1021/acs.jced.9b01020
NS(=O)(=O)Cc1noc2ccccc12,303.15,0.001494,n-propanol,CCCO,10.1021/acs.jced.0c00249
CC(=O)Oc1ccccc1C(=O)Nc1ncc([N+](=O)[O-])s1,303.15,0.00039,n-propanol,CCCO,10.1021/acs.jced.0c00254
O=Cc1cc(Br)c(O)c(Br)c1,303.15,0.006696,n-propanol,CCCO,10.1021/acs.jced.0c00376
CC(=O)Nc1ccc(OC(=O)c2ccccc2OC(C)=O)cc1,303.15,0.000327,n-propanol,CCCO,10.1021/acs.jced.0c00301
CCCSc1nc(N[C@@H]2C[C@H]2c2ccc(F)c(F)c2)c2nnn([C@@H]3C[C@H](OCCO)[C@@H](O)[C@H]3O)c2n1,303.15,0.006924,n-propanol,CCCO,10.1021/acs.jced.0c00127
O=C(Nc1ccccc1)c1ccccc1,303.15,0.007846,n-propanol,CCCO,10.1021/acs.jced.0c00167
Nc1ccc(S(N)(=O)=O)cc1,303.15,0.003646,n-propanol,CCCO,10.1021/acs.jced.9b00411
O=[N+]([O-])N=C1NCCN1Cc1ccc(Cl)nc1,303.15,0.0008,n-propanol,CCCO,10.1021/acs.jced.0c00558
O=C(O)COc1ccc(Cl)cc1,303.15,0.05064,n-propanol,CCCO,10.1021/acs.jced.1c00153
Cc1cc(Cl)cc(C(=O)O)c1N,303.15,0.008032,n-propanol,CCCO,10.1021/acs.jced.1c00047
Cc1c(N)cccc1C(=O)O,303.15,0.004438,n-propanol,CCCO,10.1021/acs.jced.1c00109
CC(=O)Nc1ccccc1[N+](=O)[O-],303.15,0.02846,n-propanol,CCCO,10.1021/acs.jced.1c00037
CSCCC(NC(C)=O)C(=O)O,303.15,0.07702,n-propanol,CCCO,10.1021/acs.jced.1c00064
O=C(O)c1ccc(CO)cc1,303.15,0.03671,n-propanol,CCCO,10.1021/acs.jced.1c00035
Nc1cccc(S(=O)(=O)c2cccc(N)c2)c1,303.15,0.002544,n-propanol,CCCO,10.1021/acs.jced.1c00062
Cn1c(=O)c2c(ncn2CC2OCCO2)n(C)c1=O,303.15,0.0024506,n-propanol,CCCO,10.1021/acs.jced.0c01088
O=C(O)[C@@H]1C[C@@H](O)CN1,303.15,0.000203,n-propanol,CCCO,10.1021/acs.jced.0c00794
O=Cc1cc(C=O)cc(C=O)c1,303.15,0.001935,n-propanol,CCCO,10.1021/acs.jced.0c00776
OCC(O)COc1ccc(Cl)cc1,303.15,0.09859,n-propanol,CCCO,10.1021/acs.jced.0c00900
COc1cc2nc(Cl)nc(N)c2cc1OC,303.15,0.0005523,n-propanol,CCCO,10.1021/acs.jced.0c00506
O=C(Nc1ccccc1)c1ccccc1O,303.15,0.0266097,n-propanol,CCCO,10.1021/acs.jced.0c01078
O=C(O)c1cccc(O)c1O,303.15,0.08403,n-propanol,CCCO,10.1021/acs.jced.0c01032
NC(=O)[C@@H]1CCCN1,303.15,0.12984,n-propanol,CCCO,10.1021/acs.jced.0c00961
c1ccc2[nH]c(-c3cscn3)nc2c1,303.15,0.002174,n-propanol,CCCO,10.1021/acs.jced.0c00724
Nc1ccc(Cc2ccc(N)c(Cl)c2)cc1Cl,303.15,0.04217,n-propanol,CCCO,10.1021/acs.jced.0c00655
c1cnc2[nH]ccc2c1,303.15,0.2724,n-propanol,CCCO,10.1021/acs.jced.0c00128
Nc1cccc(Cl)c1C(=O)O,303.15,0.04985,n-propanol,CCCO,10.1021/acs.jced.0c00320
CC1=NN(c2ccccc2)C(=O)C1,303.15,0.034421,n-propanol,CCCO,10.1021/acs.jced.0c00290
C#C[C@]1(O)CC[C@H]2[C@@H]3CCC4=CC(=O)CC[C@@H]4[C@H]3C(=C)C[C@@]21CC,303.15,0.00974,n-propanol,CCCO,10.1021/acs.jced.0c00201
Cl.N=C(N=C(N)N)N1CCOCC1,303.15,0.001612,n-propanol,CCCO,10.1021/acs.jced.0c00015
Nc1nc(=O)[nH]cc1F,303.15,0.0004887,n-propanol,CCCO,10.1021/acs.jced.1c00206
O=C(O)CNCc1ccccc1,303.15,0.000306,n-propanol,CCCO,10.1021/acs.jced.1c00050
O=C(O)c1cccc([N+](=O)[O-])c1O,303.15,0.07907,n-propanol,CCCO,10.1021/acs.jced.1c00259
Cl.N[C@@H](Cc1ccccc1)C(=O)OCc1ccccc1,303.15,0.002814,n-propanol,CCCO,10.1021/acs.jced.1c00239
O=C1CCc2cc(OCCCCc3nnnn3C3CCCCC3)ccc2N1,303.15,0.001158,n-propanol,CCCO,10.1021/acs.jced.1c00302
CCOC(=O)[C@@H]1CSCN1.Cl,303.15,0.01195,n-propanol,CCCO,10.1021/acs.jced.1c00079
CC(C)(C)OC(=O)N1CCC[C@H]1C(=O)O,303.15,0.131652,n-propanol,CCCO,10.1021/acs.jced.1c00201
O=C(O)c1cccc(C(=O)O)n1,303.15,0.007612,n-propanol,CCCO,10.1021/acs.jced.1c00200
CNC(=O)c1cc(Oc2ccc(N)cc2)ccn1,303.15,0.01854,n-propanol,CCCO,10.1021/acs.jced.1c00232
Nc1cccc(C(=O)O)c1,303.15,0.01072,n-propanol,CCCO,10.1021/acs.jced.1c00247
O=C(N[C@H](C(=O)O)c1ccccc1)OCc1ccccc1,303.15,0.038964,n-propanol,CCCO,10.1021/acs.jced.1c00240
O=C(O)c1cc([N+](=O)[O-])cc([N+](=O)[O-])c1O,303.15,0.06801,n-propanol,CCCO,10.1021/acs.jced.0c00122
O=C1N=c2ccccc2=N1,303.15,0.0037525,n-propanol,CCCO,10.1021/acs.jced.0c00165
CC(C)(c1ccc(O)cc1)c1ccc(O)cc1,303.15,0.2137,n-propanol,CCCO,10.1021/acs.jced.0c00166
O=c1cc(CBr)c2ccccc2[nH]1,303.15,0.000379,n-propanol,CCCO,10.1021/acs.jced.0c00303
OCc1ccccc1O[C@@H]1OC(CO)[C@@H](O)[C@@H](O)C1O,303.15,0.00036883,n-propanol,CCCO,10.1021/acs.jced.0c00332
OC[C@H]1O[C@@H](Oc2ccc(O)cc2)[C@H](O)[C@@H](O)[C@@H]1O,303.15,0.001416,n-propanol,CCCO,10.1021/acs.jced.0c00353
CCOC(=O)[C@@H](N)CCc1ccccc1.Cl,303.15,0.03528,n-propanol,CCCO,10.1021/acs.jced.1c00485
CC(CCc1ccccc1)NCC(O)c1ccc(O)c(C(N)=O)c1.Cl,303.15,0.000841,n-propanol,CCCO,10.1021/acs.jced.1c00432
COc1cc2c(cc1OC)C(=O)CC2,303.15,0.02812,n-propanol,CCCO,10.1021/acs.jced.1c00040
CC(=O)NCC(=O)O,303.15,0.003502,n-propanol,CCCO,10.1021/acs.jced.0c00983
CC(=O)N1CCC[C@H]1C(=O)O,303.15,0.19475,n-propanol,CCCO,10.1021/acs.jced.1c00032
CCCOC(=O)c1ccc(O)cc1,303.15,0.1977,n-propanol,CCCO,10.1021/acs.jced.0c00584
CNCCC(Oc1ccc(C(F)(F)F)cc1)c1ccccc1.Cl,303.15,0.01989,n-propanol,CCCO,10.1021/acs.jced.0c00513
C=CC(=O)NC(C)(C)CS(=O)(=O)O,303.15,0.007641,n-propanol,CCCO,10.1021/acs.jced.0c00578
O=C(O)Cc1ccccc1[N+](=O)[O-],303.15,0.03699,n-propanol,CCCO,10.1021/acs.jced.0c00543
O=C(O)Cc1ccc([N+](=O)[O-])cc1,303.15,0.09158,n-propanol,CCCO,10.1021/acs.jced.0c00182
N[C@@H](CS)C(=O)O,303.15,0.000161,n-propanol,CCCO,10.1021/acs.jced.0c00031
Oc1ccc(OCc2ccccc2)cc1,303.15,0.06422,n-propanol,CCCO,10.1021/acs.jced.9b00817
O=C([O-])/C=C/C(=O)O.[Na+],303.15,7.13e-05,n-propanol,CCCO,10.1021/acs.jced.9b01203
COC(=O)C1=C(C)NC(C)=C(C(=O)OCC(C)C)C1c1ccccc1[N+](=O)[O-],303.15,0.009415,n-propanol,CCCO,10.1021/acs.jced.9b01036
O=c1[nH]c2ccccc2c(=O)o1,303.15,0.001812,n-propanol,CCCO,10.1021/acs.jced.9b01164
O=C[C@H](O)[C@H](O)[C@H](O)CO,303.15,0.0111676,n-propanol,CCCO,10.1021/acs.jced.0c00009
Oc1c(Br)cc(Br)c2cccnc12,303.15,0.0002517,n-propanol,CCCO,10.1021/acs.jced.9b01190
CC(=O)N[C@@H](CC(C)C)C(=O)O,303.15,0.03291,n-propanol,CCCO,10.1021/acs.jced.9b01151
CN(C)Cc1c[nH]c2ccccc12,303.15,0.05152,n-propanol,CCCO,10.1021/acs.jced.9b00911
CN(C)Cc1c[nH]c2ccccc12,303.15,0.003763,n-propanol,CCCO,10.1021/acs.jced.9b01063
C[C@H](N)C(=O)O,303.15,0.000261,n-propanol,CCCO,10.1021/acs.jced.9b00743
COc1cc([N+](=O)[O-])ccc1N,303.15,0.005116,n-propanol,CCCO,10.1021/acs.jced.9b00991
O=Cc1ccc(O)c(Br)c1,303.15,0.0191,n-propanol,CCCO,10.1021/acs.jced.9b01004
CCCc1ncc(C[n+]2ccccc2C)c(N)n1.Cl.[Cl-],303.15,0.0001064,n-propanol,CCCO,10.1021/acs.jced.9b00999
Nc1ccc(Cl)cc1[N+](=O)[O-],303.15,0.02589,n-propanol,CCCO,10.1021/acs.jced.9b00919
O=C(O)c1cccnc1Cl,303.15,0.01254,n-propanol,CCCO,10.1021/acs.jced.9b00661
OC[C@H]1O[C@@H](Oc2ccc(O)cc2)[C@H](O)[C@@H](O)[C@@H]1O,303.15,0.0012844,n-propanol,CCCO,10.1021/acs.jced.9b00703
NC(N)=NC(N)=NCCc1ccccc1,303.15,0.002495,n-propanol,CCCO,10.1021/acs.jced.9b00844
CN1CCN(c2c(F)cc3c(=O)c(C(=O)O)cn4c3c2OCN4C)CC1,303.15,0.000164,n-propanol,CCCO,10.1021/acs.jced.9b00490
Nc1c(Cl)cc([N+](=O)[O-])cc1Cl,303.15,0.002575,n-propanol,CCCO,10.1021/acs.jced.9b00778
CN(C)[C@@H]1C(=O)C(C(N)=O)=C(O)[C@@]2(O)C(=O)C3=C(O)c4c(O)cccc4C[C@H]3C[C@@H]12,303.15,0.0001364,n-propanol,CCCO,10.1021/acs.jced.9b00693
N[C@H](Cc1c[nH]cn1)C(=O)O,303.15,0.0007602,n-propanol,CCCO,10.1021/acs.jced.9b00659
O=P(O)(O)c1ccccc1,303.15,0.29625,n-propanol,CCCO,10.1021/acs.jced.9b00362
OCc1ccc(O[C@@H]2O[C@H](CO)[C@@H](O)[C@H](O)[C@H]2O)cc1,303.15,0.00226,n-propanol,CCCO,10.1021/acs.jced.9b00286
O=[N+]([O-])c1ncccc1O,303.15,0.1265,n-propanol,CCCO,10.1021/acs.jced.9b00564
N=C(N)NC(N)=S,303.15,0.005644,n-propanol,CCCO,10.1021/acs.jced.9b00458
CC1(C)COP(=O)(Oc2cccc(OP3(=O)OCC(C)(C)CO3)c2)OC1,303.15,0.00187,n-propanol,CCCO,10.1021/acs.jced.7b00695
O=C1C=CC(=O)N1c1ccccc1Br,303.15,0.01875,n-propanol,CCCO,10.1021/acs.jced.9b00560
C[C@]12CCC3=C4CCC(=O)C=C4CC[C@H]3[C@@H]1CC[C@@]2(O)CC#N,303.15,0.00345,n-propanol,CCCO,10.1021/acs.jced.9b00696
Cc1nc(N)nc(N)n1,303.15,0.0006889,n-propanol,CCCO,10.1021/acs.jced.9b00593
Cc1cnc(C(=O)O)cn1,303.15,2.34e-05,n-propanol,CCCO,10.1021/acs.jced.9b00406
Nc1nnn[nH]1,303.15,0.001063,n-propanol,CCCO,10.1021/acs.jced.9b00385
Sc1nc2ccccc2[nH]1,303.15,0.00999,n-propanol,CCCO,10.1021/acs.jced.9b00190
Cc1c(C(=O)O)cc([N+](=O)[O-])cc1[N+](=O)[O-],303.15,0.02018,n-propanol,CCCO,10.1021/acs.jced.9b00497
Cc1n[nH]c2cc([N+](=O)[O-])ccc12,303.15,0.0108,n-propanol,CCCO,10.1021/acs.jced.8b01256
CN(C)/C=C/C(=O)c1cccnc1,303.15,0.03308,n-propanol,CCCO,10.1021/acs.jced.9b00047
N#Cc1cccc([N+](=O)[O-])c1C#N,303.15,0.001886,n-propanol,CCCO,10.1021/acs.jced.8b01250
O=Cc1cc([N+](=O)[O-])ccc1O,303.15,0.00308,n-propanol,CCCO,10.1021/acs.jced.9b00232
N[C@H](Cc1c[nH]c2ccccc12)C(=O)O,303.15,0.0001109,n-propanol,CCCO,10.1021/acs.jced.9b00258
N[C@H](CC(=O)O)C(=O)O,303.15,0.0003755,n-propanol,CCCO,10.1021/acs.jced.9b00320
N#CCc1ccccc1[N+](=O)[O-],303.15,0.01506,n-propanol,CCCO,10.1021/acs.jced.9b00243
Nc1cc([N+](=O)[O-])ccc1Cl,303.15,0.0209,n-propanol,CCCO,10.1021/acs.jced.8b00931
CCOC(=O)[C@@H](C)Oc1ccc(Oc2cnc3cc(Cl)ccc3n2)cc1,303.15,0.008318,n-propanol,CCCO,10.1021/acs.jced.8b01181
N#CCC(N)=O,303.15,0.009353,n-propanol,CCCO,10.1021/acs.jced.8b01205
Cc1cccc(C(=O)O)c1N,303.15,0.03441,n-propanol,CCCO,10.1021/acs.jced.8b01226
NC(=O)c1ccc([N+](=O)[O-])cc1,303.15,0.002277,n-propanol,CCCO,10.1021/acs.jced.9b00065
Nc1nc2c(ncn2COC(CO)CO)c(=O)[nH]1,303.15,0.0002459,n-propanol,CCCO,10.1021/acs.jced.8b01080
Nc1cccc2c(N)cccc12,303.15,0.001654,n-propanol,CCCO,10.1021/acs.jced.8b01214
Nc1cccc2cccc(N)c12,303.15,0.1211,n-propanol,CCCO,10.1021/acs.jced.8b01214
C[C@@H](O)[C@H]1C(=O)N2C(C(=O)[O-])=C(SC3Cn4cnc[n+]4C3)[C@H](C)[C@H]12,303.15,2.316e-05,n-propanol,CCCO,10.1021/acs.jced.8b01051
O=C(O)Cc1c[nH]c2ccccc12,303.15,2.082e-05,n-propanol,CCCO,10.1021/acs.jced.8b01265
CC#C[C@]1(O)CC[C@H]2[C@@H]3CCC4=CC(=O)CCC4=C3[C@@H](c3ccc(N(C)C)cc3)C[C@@]21C,303.15,0.000362,n-propanol,CCCO,10.1021/acs.jced.8b01062
NC(=O)c1ccc(N)cc1,303.15,0.005851,n-propanol,CCCO,10.1021/acs.jced.8b01144
CC(=O)N(CC(O)CO)c1c(I)c(C(=O)NCC(O)CO)c(I)c(C(=O)NCC(O)CO)c1I,303.15,0.001188,n-propanol,CCCO,10.1021/acs.jced.8b01101
CC(C)N1C(=O)N(c2ccccc2)CSC1=NC(C)(C)C,303.15,0.03235,n-propanol,CCCO,10.1021/acs.jced.8b01099