SMILES,"T,K",Solubility,Solvent,SMILES_Solvent,Source
O=C(O)c1cccc(O)c1O,303.15,0.1126,acetone,CC(C)=O,10.1021/acs.jced.0c01032
NC(=O)[C@@H]1CCCN1,303.15,0.15439,acetone,CC(C)=O,10.1021/acs.jced.0c00961
CC(=O)O[C@]1(C(C)=O)CC[C@H]2[C@@H]3C=C(Cl)C4=CC(=O)[C@@H]5C[C@@H]5[C@]4(C)[C@H]3CC[C@@]21C,303.15,0.00042544,acetone,CC(C)=O,10.1021/acs.jced.0c00803
c1ccc2[nH]c(-c3cscn3)nc2c1,303.15,0.001047,acetone,CC(C)=O,10.1021/acs.jced.0c00724
c1cnc2[nH]ccc2c1,303.15,0.3613,acetone,CC(C)=O,10.1021/acs.jced.0c00128
COc1ccccc1OCCNCC(O)COc1cccc2[nH]c3ccccc3c12,303.15,0.00268,acetone,CC(C)=O,10.1021/acs.jced.0c00040
CC1=NN(c2ccccc2)C(=O)C1,303.15,0.037072,acetone,CC(C)=O,10.1021/acs.jced.0c00290
C#C[C@]1(O)CC[C@H]2[C@@H]3CCC4=CC(=O)CC[C@@H]4[C@H]3C(=C)C[C@@]21CC,303.15,0.0224,acetone,CC(C)=O,10.1021/acs.jced.0c00201
Cl.N=C(N=C(N)N)N1CCOCC1,303.15,6.2e-05,acetone,CC(C)=O,10.1021/acs.jced.0c00015
Nc1nc(=O)[nH]cc1F,303.15,0.0001584,acetone,CC(C)=O,10.1021/acs.jced.1c00206
O=C(O)CNCc1ccccc1,303.15,0.000133,acetone,CC(C)=O,10.1021/acs.jced.1c00050
Cl.N[C@@H](Cc1ccccc1)C(=O)OCc1ccccc1,303.15,0.000224,acetone,CC(C)=O,10.1021/acs.jced.1c00239
O=C1CCc2cc(OCCCCc3nnnn3C3CCCCC3)ccc2N1,303.15,0.004326,acetone,CC(C)=O,10.1021/acs.jced.1c00302
CCOC(=O)[C@@H]1CSCN1.Cl,303.15,0.000348,acetone,CC(C)=O,10.1021/acs.jced.1c00079
CC(C)(C)OC(=O)N1CCC[C@H]1C(=O)O,303.15,0.074983,acetone,CC(C)=O,10.1021/acs.jced.1c00201
CNC(=O)c1cc(Oc2ccc(N)cc2)ccn1,303.15,0.06827,acetone,CC(C)=O,10.1021/acs.jced.1c00232
Nc1cccc(C(=O)O)c1,303.15,0.03752,acetone,CC(C)=O,10.1021/acs.jced.1c00247
O=C(N[C@H](C(=O)O)c1ccccc1)OCc1ccccc1,303.15,0.100168,acetone,CC(C)=O,10.1021/acs.jced.1c00240
CN1CCN(C(=O)O[C@H]2c3nccnc3C(=O)N2c2ccc(Cl)cn2)CC1,303.15,0.0023,acetone,CC(C)=O,10.1021/acs.jced.0c00047
CCO.C[C@H]1c2cccc(O)c2C(O)=C2C(=O)[C@]3(O)C(O)=C(C(N)=O)C(=O)[C@@H](N(C)C)[C@@H]3[C@@H](O)[C@@H]21.C[C@H]1c2cccc(O)c2C(O)=C2C(=O)[C@]3(O)C(O)=C(C(N)=O)C(=O)[C@@H](N(C)C)[C@@H]3[C@@H](O)[C@@H]21.Cl.Cl.O,303.15,0.000749,acetone,CC(C)=O,10.1021/acs.jced.0c00097
OCc1ccccc1O[C@@H]1OC(CO)[C@@H](O)[C@@H](O)C1O,303.15,0.00018413,acetone,CC(C)=O,10.1021/acs.jced.0c00332
OC[C@H]1O[C@@H](Oc2ccc(O)cc2)[C@H](O)[C@@H](O)[C@@H]1O,303.15,0.000962,acetone,CC(C)=O,10.1021/acs.jced.0c00353
CCOC(=O)[C@@H](N)CCc1ccccc1.Cl,303.15,0.00182,acetone,CC(C)=O,10.1021/acs.jced.1c00485
COc1cc2c(cc1OC)C(=O)CC2,303.15,0.101259,acetone,CC(C)=O,10.1021/acs.jced.1c00040
O[C@H]1[C@H](O)[C@@H](O)[C@H](O)[C@@H](O)[C@H]1O,303.15,1.675e-05,acetone,CC(C)=O,10.1021/acs.jced.0c01067
CC(=O)NCC(=O)O,303.15,0.001008,acetone,CC(C)=O,10.1021/acs.jced.0c00983
CC(=O)N1CCC[C@H]1C(=O)O,303.15,0.03477,acetone,CC(C)=O,10.1021/acs.jced.1c00032
NC1CCSC1=O,303.15,0.00026,acetone,CC(C)=O,10.1021/acs.jced.0c01089
CCCOC(=O)c1ccc(O)cc1,303.15,0.3089,acetone,CC(C)=O,10.1021/acs.jced.0c00584
CNCCC(Oc1ccc(C(F)(F)F)cc1)c1ccccc1.Cl,303.15,0.01415,acetone,CC(C)=O,10.1021/acs.jced.0c00513
C=CC(=O)NC(C)(C)CS(=O)(=O)O,303.15,0.01072,acetone,CC(C)=O,10.1021/acs.jced.0c00578
O=[N+]([O-])N(CCO)CCO.O=[N+]([O-])O.O=[N+]([O-])O,303.15,0.43948,acetone,CC(C)=O,10.1021/acs.jced.0c00211
N[C@@H](CS)C(=O)O,303.15,0.011515,acetone,CC(C)=O,10.1021/acs.jced.0c00031
Oc1ccc(OCc2ccccc2)cc1,303.15,3.1e-05,acetone,CC(C)=O,10.1021/acs.jced.9b00817
O=C([O-])/C=C/C(=O)O.[Na+],303.15,3.78e-05,acetone,CC(C)=O,10.1021/acs.jced.9b01203
O=c1[nH]c2ccccc2c(=O)o1,303.15,0.01089,acetone,CC(C)=O,10.1021/acs.jced.9b01164
O=C[C@H](O)[C@H](O)[C@H](O)CO,303.15,0.00509,acetone,CC(C)=O,10.1021/acs.jced.0c00009
Oc1c(Br)cc(Br)c2cccnc12,303.15,0.001311,acetone,CC(C)=O,10.1021/acs.jced.9b01190
O=[N+]([O-])N1CN([N+](=O)[O-])CN([N+](=O)[O-])CN([N+](=O)[O-])C1,303.15,0.0055,acetone,CC(C)=O,10.1021/acs.jced.9b01192
CC(=O)N[C@@H](CC(C)C)C(=O)O,303.15,0.007344,acetone,CC(C)=O,10.1021/acs.jced.9b01151
CN(C)Cc1c[nH]c2ccccc12,303.15,0.04628,acetone,CC(C)=O,10.1021/acs.jced.9b00911
C[C@H](N)C(=O)O,303.15,0.000138,acetone,CC(C)=O,10.1021/acs.jced.9b00743
CCCc1ncc(C[n+]2ccccc2C)c(N)n1.Cl.[Cl-],303.15,0.0004442,acetone,CC(C)=O,10.1021/acs.jced.9b00999
O=S(=O)([O-])c1cccc2c(S(=O)(=O)[O-])cccc12.[Na+].[Na+],303.15,7.41e-05,acetone,CC(C)=O,10.1021/acs.jced.9b00029
O=C(O)c1cccnc1Cl,303.15,0.01837,acetone,CC(C)=O,10.1021/acs.jced.9b00661
O=C(O)[C@@H]1CCCN1,303.15,0.000282,acetone,CC(C)=O,10.1021/acs.jced.9b00802
OC[C@H]1O[C@@H](Oc2ccc(O)cc2)[C@H](O)[C@@H](O)[C@@H]1O,303.15,0.0008674,acetone,CC(C)=O,10.1021/acs.jced.9b00703
CN1CCN(c2c(F)cc3c(=O)c(C(=O)O)cn4c3c2OCN4C)CC1,303.15,0.0004246,acetone,CC(C)=O,10.1021/acs.jced.9b00490
O=C(Nc1ccc(F)cc1F)c1cccnc1Oc1cccc(C(F)(F)F)c1,303.15,0.02105,acetone,CC(C)=O,10.1021/acs.jced.8b00632
O=P(O)(O)c1ccccc1,303.15,0.17815,acetone,CC(C)=O,10.1021/acs.jced.9b00362
OCc1ccc(O[C@@H]2O[C@H](CO)[C@@H](O)[C@H](O)[C@H]2O)cc1,303.15,0.00273,acetone,CC(C)=O,10.1021/acs.jced.9b00286
O=[N+]([O-])c1ncccc1O,303.15,0.3536,acetone,CC(C)=O,10.1021/acs.jced.9b00564
N=C(N)NC(N)=S,303.15,0.020329,acetone,CC(C)=O,10.1021/acs.jced.9b00458
CC1(C)COP(=O)(Oc2cccc(OP3(=O)OCC(C)(C)CO3)c2)OC1,303.15,0.01029,acetone,CC(C)=O,10.1021/acs.jced.7b00695
O=C(O)C=CC(=O)O.OCCOCCN1CCN(C2=Nc3ccccc3Sc3ccccc32)CC1.OCCOCCN1CCN(C2=Nc3ccccc3Sc3ccccc32)CC1,303.15,0.000251,acetone,CC(C)=O,10.1021/acs.jced.7b00518
O=C1C=CC(=O)N1c1ccccc1Br,303.15,0.1899,acetone,CC(C)=O,10.1021/acs.jced.9b00560
C[C@]12CCC3=C4CCC(=O)C=C4CC[C@H]3[C@@H]1CC[C@@]2(O)CC#N,303.15,0.00717,acetone,CC(C)=O,10.1021/acs.jced.9b00696
N[C@@H](CO)C(=O)O,303.15,4.5e-05,acetone,CC(C)=O,10.1021/acs.jced.9b00460
N[C@@H](Cc1c[nH]c2ccccc12)C(=O)O,303.15,0.00022,acetone,CC(C)=O,10.1021/acs.jced.9b00562
Cc1cnc(C(=O)O)cn1,303.15,1.56e-05,acetone,CC(C)=O,10.1021/acs.jced.9b00406
Nc1nnn[nH]1,303.15,0.001117,acetone,CC(C)=O,10.1021/acs.jced.9b00385
NNC(=O)NN.O=[N+]([O-])NC1=NC(C2N=NC(N[N+](=O)[O-])=N2)N=N1,303.15,0.0001465,acetone,CC(C)=O,10.1021/acs.jced.9b00275
Sc1nc2ccccc2[nH]1,303.15,0.01603,acetone,CC(C)=O,10.1021/acs.jced.9b00190
CC(=NC#N)N(C)Cc1ccc(Cl)nc1,303.15,0.2263,acetone,CC(C)=O,10.1021/acs.jced.9b00294
Cc1n[nH]c2cc([N+](=O)[O-])ccc12,303.15,0.0481,acetone,CC(C)=O,10.1021/acs.jced.8b01256
NS(=O)(=O)c1ccccc1,303.15,0.1648,acetone,CC(C)=O,10.1021/acs.jced.9b00360
CN(C)/C=C/C(=O)c1cccnc1,303.15,0.0127,acetone,CC(C)=O,10.1021/acs.jced.9b00047
N#Cc1cccc([N+](=O)[O-])c1C#N,303.15,0.0472,acetone,CC(C)=O,10.1021/acs.jced.8b01250
O=Cc1cc([N+](=O)[O-])ccc1O,303.15,0.03924,acetone,CC(C)=O,10.1021/acs.jced.9b00232
N[C@H](CC(=O)O)C(=O)O,303.15,0.004024,acetone,CC(C)=O,10.1021/acs.jced.9b00320
N#CCc1ccccc1[N+](=O)[O-],303.15,0.259,acetone,CC(C)=O,10.1021/acs.jced.9b00243
CC1(C)[C@@H]2CC[C@@]1(C)[C@@H](O)C2,303.15,0.0905,acetone,CC(C)=O,10.1021/acs.jced.9b00045
CC12CCC(CC1=O)C2(C)C,303.15,0.5529,acetone,CC(C)=O,10.1021/acs.jced.9b00045
Nc1cc([N+](=O)[O-])ccc1Cl,303.15,0.1682,acetone,CC(C)=O,10.1021/acs.jced.8b00931
CCOC(=O)[C@@H](C)Oc1ccc(Oc2cnc3cc(Cl)ccc3n2)cc1,303.15,0.01363,acetone,CC(C)=O,10.1021/acs.jced.8b01181
N#CCC(N)=O,303.15,0.06125,acetone,CC(C)=O,10.1021/acs.jced.8b01205
Cc1cccc(C(=O)O)c1N,303.15,0.1206,acetone,CC(C)=O,10.1021/acs.jced.8b01226
Nc1nc2c(ncn2COC(CO)CO)c(=O)[nH]1,303.15,1.121e-06,acetone,CC(C)=O,10.1021/acs.jced.8b01080
C[C@@H](O)[C@H]1C(=O)N2C(C(=O)[O-])=C(SC3Cn4cnc[n+]4C3)[C@H](C)[C@H]12,303.15,5.971e-06,acetone,CC(C)=O,10.1021/acs.jced.8b01051
O=C(O)Cc1c[nH]c2ccccc12,303.15,3.258e-05,acetone,CC(C)=O,10.1021/acs.jced.8b01265
CC#C[C@]1(O)CC[C@H]2[C@@H]3CCC4=CC(=O)CCC4=C3[C@@H](c3ccc(N(C)C)cc3)C[C@@]21C,303.15,0.000516,acetone,CC(C)=O,10.1021/acs.jced.8b01062
NC(=O)c1ccc(N)cc1,303.15,0.0105,acetone,CC(C)=O,10.1021/acs.jced.8b01144
CC(=O)N(CC(O)CO)c1c(I)c(C(=O)NCC(O)CO)c(I)c(C(=O)NCC(O)CO)c1I,303.15,0.0003715,acetone,CC(C)=O,10.1021/acs.jced.8b01101
CC(C)N1C(=O)N(c2ccccc2)CSC1=NC(C)(C)C,303.15,0.08141,acetone,CC(C)=O,10.1021/acs.jced.8b01099
Cc1nc(C)c(C)nc1C,303.15,0.15632,acetone,CC(C)=O,10.1021/acs.jced.8b00888
COc1c(N2CCNC(C)C2)c(F)cc2c(=O)c(C(=O)O)cn(C3CC3)c12,303.15,0.002036,acetone,CC(C)=O,10.1021/acs.jced.8b00902
N#CCc1ccc([N+](=O)[O-])cc1,303.15,0.111,acetone,CC(C)=O,10.1021/acs.jced.8b00811
COc1ccc(Cl)cc1C(=O)NCCc1ccc(S(=O)(=O)NC(=O)NC2CCCCC2)cc1,303.15,0.00108875,acetone,CC(C)=O,10.1021/acs.jced.8b00717
CC[C@@H](C(N)=O)N1CCCC1=O,303.15,0.01748,acetone,CC(C)=O,10.1021/acs.jced.8b00720
O=C(O)c1cc2ccccc2cc1O,303.15,0.04228,acetone,CC(C)=O,10.1021/acs.jced.8b00578
CCOC(=O)[C@H](CCc1ccccc1)N[C@@H](C)C(=O)O,303.15,0.006999,acetone,CC(C)=O,10.1021/acs.jced.8b00333
CCOC(=O)[C@H](CCc1ccccc1)N[C@@H](C)C(=O)N1CCC[C@H]1C(=O)O.O=C(O)/C=C\C(=O)O,303.15,0.003796,acetone,CC(C)=O,10.1021/acs.jced.8b00333
N#Cc1cccc([N+](=O)[O-])c1,303.15,0.1641,acetone,CC(C)=O,10.1021/acs.jced.7b00615
CS(=O)(=O)c1ccc([C@@H](O)[C@@H](CO)NC(=O)C(Cl)Cl)cc1,303.15,0.001486,acetone,CC(C)=O,10.1021/acs.jced.7b00542
NC(=O)c1cccnc1,303.15,0.0233674,acetone,CC(C)=O,10.1021/acs.jced.8b00560
COCC(=O)Nc1c(I)c(C(=O)NCC(O)CO)c(I)c(C(=O)N(C)CC(O)CO)c1I,303.15,0.0001097,acetone,CC(C)=O,10.1021/acs.jced.8b00416
Nc1nc(Cl)cc(Cl)n1,303.15,0.01098,acetone,CC(C)=O,10.1021/acs.jced.8b00292
O=C(c1ccccc1)C(O)c1ccccc1,303.15,0.01876,acetone,CC(C)=O,10.1021/acs.jced.7b00238
On1nnc2ccccc21,303.15,0.02855,acetone,CC(C)=O,10.1021/acs.jced.7b00316
COc1ccc(CN2CCNCC2)c(OC)c1OC.Cl,303.15,9.616e-06,acetone,CC(C)=O,10.1021/acs.jced.8b00235
O=c1nc[nH]c2[nH]ncc12,303.15,0.001656,acetone,CC(C)=O,10.1021/acs.jced.8b00430
CC(=O)c1cccc([N+](=O)[O-])c1,303.15,0.2637,acetone,CC(C)=O,10.1021/acs.jced.8b00192
CC(=O)c1ccc([N+](=O)[O-])cc1,303.15,0.2872,acetone,CC(C)=O,10.1021/acs.jced.8b00192
COc1ccc(C(=O)N2CCCC2=O)cc1,303.15,0.06259,acetone,CC(C)=O,10.1021/acs.jced.8b00023
O=C(O)Cc1ccccc1Cl,303.15,0.3261,acetone,CC(C)=O,10.1021/acs.jced.8b00139
Nc1ccc(S(=O)(=O)Nc2ccc(Cl)nn2)cc1,303.15,0.1022,acetone,CC(C)=O,10.1021/acs.jced.7b01134
O=C(c1ccccc1)c1ccccc1,303.15,0.5618,acetone,CC(C)=O,10.1021/acs.jced.8b00196
Cc1ccc(NC(=O)/C(=C/Cl)Sc2ccccc2)cc1,303.15,0.0564,acetone,CC(C)=O,10.1021/acs.jced.7b01011
O=C(c1ccccc1)C(O)c1ccccc1,303.15,0.01463,acetone,CC(C)=O,10.1021/acs.jced.7b00743
O=C(O)c1ccccc1O,303.15,0.19589,acetone,CC(C)=O,10.1021/acs.jced.7b00665
O=C1O[C@H]([C@@H](O)CO)C(O)=C1O.[Na],303.15,4.29e-05,acetone,CC(C)=O,10.1021/acs.jced.7b00846
C[C@@H]1O[C@@H]1P(=O)([O-])[O-].[Na+].[Na+],303.15,9.72e-05,acetone,CC(C)=O,10.1021/acs.jced.7b00638
CCCCC1C(=O)N(c2ccccc2)N(c2ccccc2)C1=O,303.15,0.13258,acetone,CC(C)=O,10.1021/acs.jced.6b00911
CCOC(=O)N1CCC(=C2c3ccc(Cl)cc3CCc3cccnc32)CC1,303.15,0.02803,acetone,CC(C)=O,10.1021/acs.jced.6b00721
COC(=O)c1c(C)cc(O)c(C)c1O,303.15,0.1718,acetone,CC(C)=O,10.1021/acs.jced.6b00646
O=C1NC23NC(=O)NC2(N1)C(=O)NC3=O,303.15,0.0001575,acetone,CC(C)=O,10.1021/acs.jced.6b00349
O=C(O)/C=C/c1ccc(O)cc1,303.15,0.0468,acetone,CC(C)=O,10.1021/acs.jced.6b00361
O=C1NC(=O)c2cc([N+](=O)[O-])ccc21,303.15,0.02933,acetone,CC(C)=O,10.1021/acs.jced.6b00230
CS(=O)(=O)c1ccc(C=O)cc1,303.15,0.01608,acetone,CC(C)=O,10.1021/acs.jced.5b01053
COc1cc(C(=O)O)ccc1O,303.15,0.0743,acetone,CC(C)=O,10.1021/acs.jced.5b00619
O=[N+]([O-])c1cccc(S(=O)(=O)[O-])c1.[Na+],303.15,0.001201,acetone,CC(C)=O,10.1021/acs.jced.5b00783
O=[N+]([O-])c1ccc(S(=O)(=O)[O-])cc1.[Na+],303.15,0.0206,acetone,CC(C)=O,10.1021/acs.jced.5b00783
Clc1cc(Cl)cc(Cl)c1,303.15,0.1403,acetone,CC(C)=O,10.1021/acs.jced.5b00607
O=S(=O)(c1ccc(O)cc1)c1ccc(O)cc1,303.15,0.02681,acetone,CC(C)=O,10.1021/acs.jced.5b00714
COC(=O)[C@H](c1ccccc1Cl)N1CCc2sccc2C1.O=S(=O)(O)O,303.15,0.067168,acetone,CC(C)=O,10.1021/acs.jced.5b00306
CC(C)(C)c1cc(O)c(C(C)(C)C)cc1O,303.15,0.07755,acetone,CC(C)=O,10.1021/je501049c
C=C1C[C@]23C[C@H]1CC[C@H]2[C@@]12CC[C@H](O)[C@@](C)(C(=O)O1)[C@H]2[C@@H]3C(=O)O,303.15,0.075864,acetone,CC(C)=O,10.1021/acs.jced.5b00190
O=P(NCc1ccccc1)(Oc1ccccc1)Oc1ccccc1,303.15,0.07412,acetone,CC(C)=O,10.1021/acs.jced.5b00007
O=[N+]([O-])N1CN2CN(C1)CN([N+](=O)[O-])C2,303.15,1.01512e-07,acetone,CC(C)=O,10.1021/acs.jced.5b00033
CCOC(=O)C1(c2ccccc2)CCN(CCC(C#N)(c2ccccc2)c2ccccc2)CC1,303.15,0.0055891,acetone,CC(C)=O,10.1021/je5010033
CC(C)c1ccc2sc3ccccc3c(=O)c2c1,303.15,0.16747,acetone,CC(C)=O,10.1021/je501011t
Nc1cc(Cl)nnc1Cl,303.15,0.029289,acetone,CC(C)=O,10.1021/je500286x
Nc1ccc(S(=O)(=O)O)cc1,303.15,0.000324,acetone,CC(C)=O,10.1021/je500867u
O=C1N2CN3C(=O)N([N+](=O)[O-])C4C3N(CN3C(=O)N([N+](=O)[O-])C(C23)N1[N+](=O)[O-])C(=O)N4[N+](=O)[O-],303.15,0.0002057,acetone,CC(C)=O,10.1021/je500392g
C=CC1=C(C(=O)O)N2C(=O)[C@@H](NC(=O)/C(=N\OCC(=O)O)c3csc(N)n3)[C@H]2SC1.O.O.O,303.15,0.004402,acetone,CC(C)=O,10.1021/je5000605
C[N+](C)(C)C[C@H](O)CC(=O)[O-],303.15,0.000131,acetone,CC(C)=O,10.1021/je500078n
O=C(O)COC(=O)Cc1ccccc1Nc1c(Cl)cccc1Cl,303.15,0.06777,acetone,CC(C)=O,10.1021/je500038u
CC[C@H]1OC(=O)[C@H](C)[C@@H](O[C@H]2C[C@@](C)(OC)[C@@H](O)[C@H](C)O2)[C@H](C)[C@@H](O[C@@H]2O[C@H](C)C[C@H](N(C)C)[C@H]2O)[C@](C)(O)C[C@@H](C)CN(C)[C@H](C)[C@@H](O)[C@]1(C)O.O,303.15,0.0464,acetone,CC(C)=O,10.1021/je400899e
O=C1OC(=O)c2ccc(Br)c3cccc1c23,303.15,0.00224,acetone,CC(C)=O,10.1021/je400259a
O=P(Oc1ccccc1)(Oc1ccccc1)N1CCN(P(=O)(Oc2ccccc2)Oc2ccccc2)CC1,303.15,0.0005593,acetone,CC(C)=O,10.1021/je400412z
CC1(C)COP(=O)(C(C)(C)O)OC1,303.15,0.00596,acetone,CC(C)=O,10.1021/je4003114
O=C(O)c1cccc(Cl)c1C(=O)c1ccccc1,303.15,0.003084,acetone,CC(C)=O,10.1021/je400246s
O=C1c2ccccc2C(=O)c2c(Cl)cccc21,303.15,0.006111,acetone,CC(C)=O,10.1021/je400246s
Cc1nc(-c2ccc(OCC(C)C)c(C#N)c2)sc1C(=O)O,303.15,0.0092127,acetone,CC(C)=O,10.1021/je300647k
Nc1ccc(Cl)nn1,303.15,0.0042339,acetone,CC(C)=O,10.1021/je3001188
CCOc1nc2cccc(C(=O)OC(C)OC(=O)OC3CCCCC3)c2n1Cc1ccc(-c2ccccc2-c2nnn[nH]2)cc1,303.15,0.00946,acetone,CC(C)=O,10.1021/je101020m
O=C(O)CC(O)(CC(=O)O)C(=O)O,303.15,0.1061,acetone,CC(C)=O,10.1021/je101167z
O=P1(O)OCC2(CO1)COP(=O)(O)OC2,303.15,0.0045,acetone,CC(C)=O,10.1021/je100341q
N[C@@H](Cc1ccc([N+](=O)[O-])cc1[N+](=O)[O-])C(=O)O,303.15,3.063e-06,acetone,CC(C)=O,10.1021/je100352r
Oc1cc(O)c2cc(O)c(-c3cc(O)c(O)c(O)c3)[o+]c2c1,303.15,6.6e-11,acetone,CC(C)=O,10.1021/je900851k
CN/C(=C\[N+](=O)[O-])NCCSCc1csc(CN(C)C)n1,303.15,0.01025,acetone,CC(C)=O,10.1021/je1000928
CC[C@H](CC[C@@H](C)[C@H]1CC[C@H]2[C@@H]3CC=C4C[C@@H](O)CC[C@]4(C)[C@H]3CC[C@@]21C)C(C)C,303.15,0.006163,acetone,CC(C)=O,10.1021/je9009909
Nc1ccc(S(=O)(=O)Nc2ncccn2)cc1,303.15,9.173e-05,acetone,CC(C)=O,10.1021/je900742p
C[C@H](CS)C(=O)N1CCC[C@H]1C(=O)O,303.15,0.07539,acetone,CC(C)=O,10.1021/je900401z
F[P-](F)(F)(F)(F)F.F[P-](F)(F)(F)(F)F.c1cc[n+](CCCCCC[n+]2ccccc2)cc1,303.15,0.004307,acetone,CC(C)=O,10.1021/je9004855
Nc1ccc(S(N)(=O)=O)cc1,303.15,0.09941,acetone,CC(C)=O,10.1021/je900038m
Nc1cccnc1,303.15,0.3048,acetone,CC(C)=O,10.1021/je800945e
CC1=C(/C=C/C(C)=C/C=C/C(C)=C/C=C/C=C(C)/C=C/C=C(C)/C=C/C2=C(C)C(=O)CCC2(C)C)C(C)(C)CCC1=O,303.15,3.1e-05,acetone,CC(C)=O,10.1021/je800801x
O=C1OC(=O)c2c(Cl)cccc21,303.15,0.2344,acetone,CC(C)=O,10.1021/je800869g
O=C1OC(=O)c2cc(Cl)ccc21,303.15,0.3155,acetone,CC(C)=O,10.1021/je800869g
CN1CCN(c2cc3c(cc2F)c(=O)c(C(=O)O)cn3-c2ccc(F)cc2)CC1,303.15,0.0081,acetone,CC(C)=O,10.1021/je800742d
C[C@@H]1CC[C@H]2[C@@H](C)C(=O)O[C@@H]3O[C@@]4(C)CC[C@@H]1[C@]32OO4,303.15,0.01140663,acetone,CC(C)=O,10.1021/je800515w
CC(=O)OCC(=O)[C@@]12N=C(C)O[C@@H]1C[C@H]1[C@@H]3CCC4=CC(=O)C=C[C@]4(C)[C@H]3[C@@H](O)C[C@@]12C,303.15,0.00721402,acetone,CC(C)=O,10.1021/je800790g
CCN1CCN(c2cc3c(cc2F)c(=O)cc(C(=O)[O-])n3C2CC2)CC1.[Na+],303.15,0.00252,acetone,CC(C)=O,10.1021/je8005826
CC(=O)C1=CC[C@H]2[C@@H]3CCC4=CC(=O)C=C[C@]4(C)[C@H]3[C@@H](O)C[C@]12C,303.15,0.002153,acetone,CC(C)=O,10.1021/je800174u
CO[C@H]1/C=C/O[C@@]2(C)Oc3c(C)c(O)c4c(O)c(c(/C=N/N5CCN(C6CCCC6)CC5)c(O)c4c3C2=O)NC(=O)/C(C)=C\C=C\[C@H](C)[C@H](O)[C@@H](C)[C@@H](O)[C@@H](C)[C@H](OC(C)=O)[C@@H]1C,303.15,0.000576,acetone,CC(C)=O,10.1021/je7007457
O=[N+]([O-])N1CN([N+](=O)[O-])CN([N+](=O)[O-])C1,303.15,0.0234,acetone,CC(C)=O,10.1021/je7002463
OC[C@H](O)C(O)[C@H](O)CO,303.15,0.0003023,acetone,CC(C)=O,10.1021/je700131z
O=C1OC(=O)C2C3C=CC(O3)C12,303.15,0.070296,acetone,CC(C)=O,10.1021/acs.jced.0c00569
O=C1NC(=O)c2cc([N+](=O)[O-])ccc21,303.15,0.02933,acetone,CC(C)=O,10.1021/acs.jced.0c00479
CC(=O)Oc1ccccc1C(=O)O,303.15,0.104806,acetone,CC(C)=O,10.1021/acs.jced.9b01057
CC(=O)Oc1ccc(C(c2ccc(OC(C)=O)cc2)c2ccccn2)cc1,303.15,0.003181,acetone,CC(C)=O,10.1021/acs.jced.9b00728
N#CC(c1ccc(Cl)cc1)c1c(Cl)cc(-n2ncc(=O)[nH]c2=O)cc1Cl,303.15,0.02152,acetone,CC(C)=O,10.1021/acs.jced.9b00353
CCCN(CCC)S(=O)(=O)c1ccc(C(=O)O)cc1,303.15,0.02336,acetone,CC(C)=O,10.1021/acs.jced.8b00863
C[C@H](O)[C@@H](O)[C@@H](O)[C@H](O)C=O,303.15,0.00032,acetone,CC(C)=O,10.1021/acs.jced.8b00361
Cc1ncc(COP(=O)(O)O)c(C=O)c1O.O,303.15,2.42e-06,acetone,CC(C)=O,10.1021/acs.jced.8b00309
CCOc1cc(C=O)ccc1O,303.15,0.369,acetone,CC(C)=O,10.1021/acs.jced.6b00972
O=S(=O)(c1ccc(O)cc1)c1ccc(O)cc1,303.15,0.02681,acetone,CC(C)=O,10.1021/acs.jced.6b00421
CC(C)OC(=O)C(C)(C)Oc1ccc(C(=O)c2ccc(Cl)cc2)cc1,303.15,0.1802957,acetone,CC(C)=O,10.1021/acs.jced.6b00268
O=C(O)COc1ccc(Cl)cc1Cl,303.15,0.1626,acetone,CC(C)=O,10.1016/j.jct.2021.106589
Nc1nc2ccc(OC(F)(F)F)cc2s1,303.15,0.42476,acetone,CC(C)=O,10.1016/j.jct.2021.106569
Cn1c(=O)cc(N2CCC[C@@H](N)C2)n(Cc2ccccc2C#N)c1=O.O=C(O)c1ccccc1,303.15,0.004696,acetone,CC(C)=O,10.1016/j.jct.2021.106474
CC(=O)Nc1ccc(C(=O)O)cc1,303.15,0.005384,acetone,CC(C)=O,10.1016/j.jct.2021.106478
CN1CCN(C2=Nc3cc(Cl)ccc3Nc3ccccc32)CC1,303.15,0.02233,acetone,CC(C)=O,10.1016/j.jct.2021.106451
COCCOC(=O)C1=C(C)NC(C)=C(C(=O)OC(C)C)C1c1cccc([N+](=O)[O-])c1,303.15,0.02166,acetone,CC(C)=O,10.1016/j.jct.2020.106259
O=c1cc(CO)occ1O,303.15,0.005561,acetone,CC(C)=O,10.1016/j.jct.2020.106280
CC(C)Oc1ccc2c(=O)c(-c3ccccc3)coc2c1,303.15,0.024088,acetone,CC(C)=O,10.1016/j.jct.2020.106231
N#Cc1ccc2c(c1)OCO2,303.15,0.2068,acetone,CC(C)=O,10.1016/j.jct.2020.106191
O=c1[nH]c(=O)n(C2CCCO2)cc1F,303.15,0.027657,acetone,CC(C)=O,10.1016/j.jct.2020.106090
COc1ccccc1N1CCN(CC(O)COc2cccc3ccccc23)CC1,303.15,0.008945,acetone,CC(C)=O,10.1016/j.jct.2019.105969
Cc1ccc(NC(=O)c2ccc(CN3CCN(C)CC3)cc2)cc1Nc1nccc(-c2cccnc2)n1,303.15,0.000744,acetone,CC(C)=O,10.1016/j.jct.2019.106031
COC(=O)Nc1nc2ccc(Sc3ccccc3)cc2[nH]1,303.15,0.0002408,acetone,CC(C)=O,10.1016/j.jct.2019.07.018
c1ccc2c(c1)sc1ccccc12,303.15,0.0884,acetone,CC(C)=O,10.1016/j.jct.2018.09.017
c1ccc(-c2nnn[nH]2)cc1,303.15,0.02359,acetone,CC(C)=O,10.1016/j.jct.2017.04.019
Cc1cc(C)[nH]n1,303.15,0.1433,acetone,CC(C)=O,10.1016/j.jct.2017.02.011
CC(C)c1ncc[nH]1,303.15,0.1396,acetone,CC(C)=O,10.1016/j.jct.2016.12.028
Clc1ccc2c(c1)Nc1ccccc1S2,303.15,0.04209,acetone,CC(C)=O,10.1016/j.jct.2016.11.029
Nc1ccc([N+](=O)[O-])cc1N,303.15,0.03146,acetone,CC(C)=O,10.1016/j.jct.2016.11.014
Nc1cc(Cl)ccc1C(=O)O,303.15,0.03514,acetone,CC(C)=O,10.1016/j.jct.2016.11.019
CC(C)(C)C(O)(CCc1ccc(Cl)cc1)Cn1cncn1,303.15,0.07886,acetone,CC(C)=O,10.1016/j.jct.2016.11.032
Cc1cc([N+](=O)[O-])ccc1N,303.15,0.1422,acetone,CC(C)=O,10.1016/j.jct.2016.10.037
O=Cc1cccc([N+](=O)[O-])c1,303.15,0.5854,acetone,CC(C)=O,10.1016/j.jct.2016.10.040
CC(=O)[C@@]1(O)CC[C@H]2[C@@H]3CCC4=CC(=O)CC[C@]4(C)[C@H]3[C@@H](O)C[C@@]21C,303.15,0.01058,acetone,CC(C)=O,10.1016/j.jct.2016.10.046
Cn1cnc([N+](=O)[O-])c1Cl,303.15,0.03909,acetone,CC(C)=O,10.1016/j.jct.2016.10.006
COc1cc(Cl)nc(N)n1,303.15,0.02549,acetone,CC(C)=O,10.1016/j.jct.2016.10.020
NC(=O)N1c2ccccc2CC(=O)c2ccccc21,303.15,0.00154,acetone,CC(C)=O,10.1016/j.jct.2016.09.011
O=Cc1ccc([N+](=O)[O-])cc1,303.15,0.1661,acetone,CC(C)=O,10.1016/j.jct.2016.09.012
O=C(NC[C@H]1CN(c2ccc(N3CCOCC3=O)cc2)C(=O)O1)c1ccc(Cl)s1,303.15,0.0001745,acetone,CC(C)=O,10.1016/j.jct.2016.09.036
Nc1nnc[nH]1,303.15,0.009496,acetone,CC(C)=O,10.1016/j.jct.2016.09.033
C[C@@H]1O[C@@H](OC[C@H]2O[C@@H](Oc3c(-c4ccc(OCCO)c(OCCO)c4)oc4cc(OCCO)cc(O)c4c3=O)[C@H](O)[C@@H](O)[C@@H]2O)[C@H](O)[C@H](O)[C@H]1O,303.15,5.5e-05,acetone,CC(C)=O,10.1016/j.jct.2016.09.015
O=Cc1ccc(C=O)cc1,303.15,0.09329,acetone,CC(C)=O,10.1016/j.jct.2016.07.013
C=CC(=O)N1CCC[C@@H](n2nc(-c3ccc(Oc4ccccc4)cc3)c3c(N)ncnc32)C1,303.15,0.007943,acetone,CC(C)=O,10.1016/j.jct.2016.08.034
O=[N+]([O-])c1ccc(O)c2ncccc12,303.15,0.008309,acetone,CC(C)=O,10.1016/j.jct.2016.04.018
COc1ccc2nc(S(=O)Cc3ncc(C)c(OC)c3C)[nH]c2c1,303.15,0.003773,acetone,CC(C)=O,10.1016/j.jct.2015.11.005