SMILES,"T,K",Solubility,Solvent,SMILES_Solvent,Source
COC(=O)Nc1nc2ccc(C(=O)c3ccc(F)cc3)cc2[nH]1,303.15,2.158e-05,n-propanol,CCCO,10.1021/acs.jced.8b01126
Cc1nc(C)c(C)nc1C,303.15,0.24466,n-propanol,CCCO,10.1021/acs.jced.8b00888
Nc1nc(Cl)c2[nH]cnc2n1,303.15,0.0002339,n-propanol,CCCO,10.1021/acs.jced.8b01014
COc1c(N2CCNC(C)C2)c(F)cc2c(=O)c(C(=O)O)cn(C3CC3)c12,303.15,0.001086,n-propanol,CCCO,10.1021/acs.jced.8b00902
CCOC(=O)C1=C[C@]2(CC)CCCN3CCc4c(n1c1ccccc41)[C@@H]32,303.15,0.0020846,n-propanol,CCCO,10.1021/acs.jced.8b00663
N#CCc1ccc([N+](=O)[O-])cc1,303.15,0.004203,n-propanol,CCCO,10.1021/acs.jced.8b00811
COc1ccc(Cl)cc1C(=O)NCCc1ccc(S(=O)(=O)NC(=O)NC2CCCCC2)cc1,303.15,0.0002864,n-propanol,CCCO,10.1021/acs.jced.8b00717
NNC(=O)c1ccncc1,303.15,0.004953,n-propanol,CCCO,10.1021/acs.jced.8b00785
CC[C@@H](C(N)=O)N1CCCC1=O,303.15,0.03625,n-propanol,CCCO,10.1021/acs.jced.8b00720
O=C(O)c1cc2ccccc2cc1O,303.15,0.02884,n-propanol,CCCO,10.1021/acs.jced.8b00578
CS(=O)(=O)O.Cc1ccc(NC(=O)c2ccc(CN3CCN(C)CC3)cc2)cc1Nc1nccc(-c2cccnc2)n1,303.15,0.0001556,n-propanol,CCCO,10.1021/acs.jced.8b00551
Cc1ccc(S(N)(=O)=O)cc1,303.15,0.04696,n-propanol,CCCO,10.1021/acs.jced.7b00714
Cc1ccccc1S(N)(=O)=O,303.15,0.03305,n-propanol,CCCO,10.1021/acs.jced.7b00714
N#Cc1cccc([N+](=O)[O-])c1,303.15,0.007295,n-propanol,CCCO,10.1021/acs.jced.7b00615
CS(=O)(=O)c1ccc([C@@H](O)[C@@H](CO)NC(=O)C(Cl)Cl)cc1,303.15,0.0002853,n-propanol,CCCO,10.1021/acs.jced.7b00542
NC(=O)c1cccnc1,303.15,0.044966,n-propanol,CCCO,10.1021/acs.jced.8b00560
Nc1nc(Cl)cc(Cl)n1,303.15,0.001919,n-propanol,CCCO,10.1021/acs.jced.8b00292
O=C(c1ccccc1)C(O)c1ccccc1,303.15,0.00284,n-propanol,CCCO,10.1021/acs.jced.7b00238
On1nnc2ccccc21,303.15,0.05731,n-propanol,CCCO,10.1021/acs.jced.7b00316
COc1ccc(CN2CCNCC2)c(OC)c1OC.Cl,303.15,0.0003663,n-propanol,CCCO,10.1021/acs.jced.8b00235
O=c1nc[nH]c2[nH]ncc12,303.15,0.0001397,n-propanol,CCCO,10.1021/acs.jced.8b00430
Cc1cc(C)nc(Nc2ccccc2)n1,303.15,0.03701,n-propanol,CCCO,10.1021/acs.jced.8b00124
CC(=O)c1cccc([N+](=O)[O-])c1,303.15,0.01237,n-propanol,CCCO,10.1021/acs.jced.8b00192
CC(=O)c1ccc([N+](=O)[O-])cc1,303.15,0.01537,n-propanol,CCCO,10.1021/acs.jced.8b00192
COc1ccc(C(=O)N2CCCC2=O)cc1,303.15,0.00358,n-propanol,CCCO,10.1021/acs.jced.8b00023
O=C(O)Cc1ccccc1Cl,303.15,0.3323,n-propanol,CCCO,10.1021/acs.jced.8b00139
Nc1ccc(C(=O)O)cc1.[K],303.15,0.000884,n-propanol,CCCO,10.1021/acs.jced.7b00978
CS(=O)(=O)c1ccc([C@@H](O)[C@@H](CF)NC(=O)C(Cl)Cl)cc1,303.15,0.002688,n-propanol,CCCO,10.1021/acs.jced.8b00043
O=C(c1ccccc1)c1ccccc1,303.15,0.3132,n-propanol,CCCO,10.1021/acs.jced.8b00196
O=C(c1ccccc1)C(O)c1ccccc1,303.15,0.002768,n-propanol,CCCO,10.1021/acs.jced.7b00743
Cc1ccc(S(=O)(=O)O)cc1.Cc1ccc(S(=O)(=O)O)cc1.OCCN(CCO)c1nc(N2CCCCC2)c2nc(N(CCO)CCO)nc(N3CCCCC3)c2n1,303.15,0.000602,n-propanol,CCCO,10.1021/acs.jced.7b00825
C[C@@H]1O[C@@H]1P(=O)([O-])[O-].[Na+].[Na+],303.15,3.09e-05,n-propanol,CCCO,10.1021/acs.jced.7b00638
CO/C=C(/C(=O)OC)c1ccccc1Oc1cc(Oc2ccccc2C#N)ncn1,303.15,0.001621,n-propanol,CCCO,10.1021/acs.jced.7b00669
O=C(O)CS.[Na],303.15,0.000587,n-propanol,CCCO,10.1021/acs.jced.7b00245
O=[N+]([O-])N1C2C3N([N+](=O)[O-])C1C1N([N+](=O)[O-])C(C(N1[N+](=O)[O-])N3[N+](=O)[O-])N2[N+](=O)[O-],303.15,0.0003055,n-propanol,CCCO,10.1021/acs.jced.6b00761
CCOC(=O)N1CCC(=C2c3ccc(Cl)cc3CCc3cccnc32)CC1,303.15,0.04739,n-propanol,CCCO,10.1021/acs.jced.6b00721
CO[C@@]1(NC(=O)CSCC#N)C(=O)N2C(C(=O)[O-])=C(CSc3nnnn3C)CS[C@@H]21.[Na+],303.15,0.000153,n-propanol,CCCO,10.1021/acs.jced.6b00741
CC(=O)c1ccc(S(C)(=O)=O)cc1,303.15,0.0185,n-propanol,CCCO,10.1021/acs.jced.6b00617
COC(=O)c1c(C)cc(O)c(C)c1O,303.15,0.1113,n-propanol,CCCO,10.1021/acs.jced.6b00646
CNC(=O)c1cc(Oc2ccc(NC(=O)Nc3ccc(Cl)c(C(F)(F)F)c3)cc2)ccn1,303.15,0.001369,n-propanol,CCCO,10.1021/acs.jced.6b00630
CNC(=O)c1cc(Oc2ccc(NC(=O)Nc3ccc(Cl)c(C(F)(F)F)c3)cc2)ccn1.Cc1ccc(S(=O)(=O)O)cc1,303.15,0.0002584,n-propanol,CCCO,10.1021/acs.jced.6b00630
O=C1NC23NC(=O)NC2(N1)C(=O)NC3=O,303.15,0.000103,n-propanol,CCCO,10.1021/acs.jced.6b00349
O=C(O)/C=C/c1ccc(O)cc1,303.15,0.0429,n-propanol,CCCO,10.1021/acs.jced.6b00361
CCOC(=O)c1ccc(N)cc1,303.15,0.101,n-propanol,CCCO,10.1021/acs.jced.6b00037
CS(=O)(=O)c1ccc(C=O)cc1,303.15,0.001264,n-propanol,CCCO,10.1021/acs.jced.5b01053
CC(C)(C)c1ccc(OP2OCC3(CO2)COP(Oc2ccc(C(C)(C)C)cc2C(C)(C)C)OC3)c(C(C)(C)C)c1,303.15,0.0004771,n-propanol,CCCO,10.1021/acs.jced.5b00823
C=C(C)[C@@H]1CC[C@]2(C(=O)O)CC[C@]3(C)[C@H](CC[C@@H]4[C@@]5(C)CCC(=O)C(C)(C)[C@@H]5CC[C@]43C)[C@@H]12,303.15,0.01163,n-propanol,CCCO,10.1021/acs.jced.5b00122
COc1cc(C(=O)O)ccc1O,303.15,0.0282,n-propanol,CCCO,10.1021/acs.jced.5b00619
Clc1cc(Cl)cc(Cl)c1,303.15,0.09729,n-propanol,CCCO,10.1021/acs.jced.5b00607
O=S(=O)(c1ccc(O)cc1)c1ccc(O)cc1,303.15,0.0009671,n-propanol,CCCO,10.1021/acs.jced.5b00714
COc1ccc(C(=O)O)c(OC)c1,303.15,0.0195,n-propanol,CCCO,10.1021/je501045s
O=C(O)c1ccco1,303.15,0.2082,n-propanol,CCCO,10.1021/je500012b
O=[N+]([O-])c1ccc(Cl)c(Cl)c1,303.15,0.173,n-propanol,CCCO,10.1021/je401044h
O=[N+]([O-])c1cccc(Cl)c1Cl,303.15,0.05752,n-propanol,CCCO,10.1021/je401044h
OC(Cn1cncn1)(Cn1cncn1)c1ccc(F)cc1F,303.15,0.0127,n-propanol,CCCO,10.1021/je4010257
CCNc1nc(Cl)nc(NC(C)C)n1,303.15,0.0050861,n-propanol,CCCO,10.1021/je400639m
O=C(O)[C@@H]1Cc2ccccc2N1,303.15,0.002843,n-propanol,CCCO,10.1021/je400188h
CC1=C(C(=O)O)N2C(=O)[C@@H](NC(=O)[C@H](N)C3=CCC=CC3)[C@H]2SC1,303.15,0.000381,n-propanol,CCCO,10.1021/je400218d
Nc1cc(N2CCCCC2)nc(N)[n+]1[O-],303.15,0.00786,n-propanol,CCCO,10.1021/je1012839
COC(=O)[C@H](c1ccccc1Cl)N1CCc2sccc2C1.O=S(=O)(O)O,303.15,0.007323,n-propanol,CCCO,10.1021/je200067e
CCc1ccc(CCOc2ccc(CC3SC(=O)NC3=O)cc2)nc1.Cl,303.15,0.0007501,n-propanol,CCCO,10.1021/je101230a
C[C@@H]1[C@H]2C3=CC[C@@H]4[C@@]5(C)C[C@@H](O)[C@H](O)[C@@](C)(CO)[C@@H]5CC[C@@]4(C)[C@]3(C)CC[C@@]2(C(=O)O[C@@H]2O[C@H](CO[C@@H]3O[C@H](CO)[C@@H](O[C@@H]4O[C@@H](C)[C@H](O)[C@@H](O)[C@H]4O)[C@H](O)[C@H]3O)[C@@H](O)[C@H](O)[C@H]2O)CC[C@H]1C,303.15,6.06e-05,n-propanol,CCCO,10.1021/je101208p
CCOc1nc2cccc(C(=O)OC(C)OC(=O)OC3CCCCC3)c2n1Cc1ccc(-c2ccccc2-c2nnn[nH]2)cc1,303.15,0.00208,n-propanol,CCCO,10.1021/je101020m
N[C@@H](Cc1ccc([N+](=O)[O-])cc1[N+](=O)[O-])C(=O)O,303.15,1.006e-05,n-propanol,CCCO,10.1021/je100352r
Nc1ccc(S(=O)(=O)Nc2ncccn2)cc1,303.15,0.0001642,n-propanol,CCCO,10.1021/je900742p
Nc1ccc(S(N)(=O)=O)cc1,303.15,0.003326,n-propanol,CCCO,10.1021/je900038m
O=C(Oc1ccccc1)c1ccccc1O,303.15,0.3298,n-propanol,CCCO,10.1021/je800668j
CCCCc1nc(Cl)c(CO)n1Cc1ccc(-c2ccccc2-c2nnn[n-]2)cc1.[K+],303.15,0.02725,n-propanol,CCCO,10.1021/je7007236
CN(C)CCC(c1ccc(Cl)cc1)c1ccccn1.O=C(O)/C=C\C(=O)O,303.15,0.00612,n-propanol,CCCO,10.1021/je7001682
CC(C)(Oc1ccc(C2CC2(Cl)Cl)cc1)C(=O)O,303.15,0.125,n-propanol,CCCO,10.1021/acs.jced.1c00276
COCCOc1ccccc1S(=O)(=O)NC(=O)Nc1nc(OC)nc(OC)n1,303.15,0.002595,n-propanol,CCCO,10.1021/acs.jced.1c00357
COC(=O)c1sccc1S(=O)(=O)NC(=O)Nc1nc(C)nc(OC)n1,303.15,0.0001004,n-propanol,CCCO,10.1021/acs.jced.1c00267
CCCc1cc(=O)[nH]c(=S)[nH]1,303.15,0.004933,n-propanol,CCCO,10.1021/acs.jced.1c00071
O=Cc1ccc(O)c(Br)c1,303.15,0.0191,n-propanol,CCCO,10.1021/acs.jced.0c00043
Nc1c(Cl)cc([N+](=O)[O-])cc1Cl,303.15,0.002575,n-propanol,CCCO,10.1021/acs.jced.0c00199
COc1cc([N+](=O)[O-])ccc1N,303.15,0.005116,n-propanol,CCCO,10.1021/acs.jced.0c00041
CC1=NN(c2ccccc2)C(=O)C1,303.15,0.03931,n-propanol,CCCO,10.1021/acs.jced.9b00881
CC(=O)Oc1ccccc1C(=O)O,303.15,0.0575523,n-propanol,CCCO,10.1021/acs.jced.9b01057
CC(=O)Oc1ccc(C(c2ccc(OC(C)=O)cc2)c2ccccn2)cc1,303.15,0.000199,n-propanol,CCCO,10.1021/acs.jced.9b00728
COc1c(N2CCNC(C)C2)c(F)cc2c(=O)c(C(=O)O)cn(C3CC3)c12,303.15,0.001086,n-propanol,CCCO,10.1021/acs.jced.9b00930
N#CC(c1ccc(Cl)cc1)c1c(Cl)cc(-n2ncc(=O)[nH]c2=O)cc1Cl,303.15,0.002683,n-propanol,CCCO,10.1021/acs.jced.9b00353
c1ccc(-c2ccc(C(c3ccccc3)n3ccnc3)cc2)cc1,303.15,0.006124,n-propanol,CCCO,10.1021/acs.jced.9b00097
N#CCc1ccc([N+](=O)[O-])cc1,303.15,0.004203,n-propanol,CCCO,10.1021/acs.jced.9b00005
O=C(O)[C@H]1O[C@@H](Oc2cc3oc(-c4ccccc4)cc(=O)c3c(O)c2O)[C@H](O)[C@@H](O)[C@@H]1O,303.15,0.00289,n-propanol,CCCO,10.1021/acs.jced.8b01186
CCCN(CCC)S(=O)(=O)c1ccc(C(=O)O)cc1,303.15,0.0135,n-propanol,CCCO,10.1021/acs.jced.8b00863
N#Cc1ccc([N+](=O)[O-])cc1,303.15,0.006193,n-propanol,CCCO,10.1021/acs.jced.8b00555
N#Cc1cccc([N+](=O)[O-])c1,303.15,0.007295,n-propanol,CCCO,10.1021/acs.jced.8b00230
CN1CC(O)c2cc(N=NC(N)=O)c(O)cc21,303.15,3.656e-05,n-propanol,CCCO,10.1021/acs.jced.7b00982
COc1ccc([C@@H]2CC(=O)c3c(O)cc(O[C@@H]4O[C@H](CO[C@@H]5O[C@@H](C)[C@H](O)[C@@H](O)[C@H]5O)[C@@H](O)[C@H](O)[C@H]4O)cc3O2)cc1O,303.15,0.00019,n-propanol,CCCO,10.1021/acs.jced.7b00948
COC(=O)[C@H](N)c1ccc(O)cc1,303.15,0.0029507,n-propanol,CCCO,10.1021/acs.jced.6b00415
S=C(Nc1ccccc1)Nc1ccccc1,303.15,0.003191,n-propanol,CCCO,10.1016/j.jct.2021.106605
c1ccc2[nH]c(-c3cscn3)nc2c1,303.15,0.00225,n-propanol,CCCO,10.1016/j.jct.2021.106616
O=C(O)COc1ccc(Cl)cc1Cl,303.15,0.1309,n-propanol,CCCO,10.1016/j.jct.2021.106589
Nc1nc2ccc(OC(F)(F)F)cc2s1,303.15,0.24877,n-propanol,CCCO,10.1016/j.jct.2021.106569
Cn1c(=O)cc(N2CCC[C@@H](N)C2)n(Cc2ccccc2C#N)c1=O.O=C(O)c1ccccc1,303.15,0.000278,n-propanol,CCCO,10.1016/j.jct.2021.106474
CC(=O)Nc1ccc(C(=O)O)cc1,303.15,0.007925,n-propanol,CCCO,10.1016/j.jct.2021.106478
CN1CCN(C2=Nc3cc(Cl)ccc3Nc3ccccc32)CC1,303.15,0.01085,n-propanol,CCCO,10.1016/j.jct.2021.106398
CN1CCN(C2=Nc3cc(Cl)ccc3Nc3ccccc32)CC1,303.15,0.01336,n-propanol,CCCO,10.1016/j.jct.2021.106451
CN(C)c1ccc(O)c2c1C[C@H]1C[C@H]3[C@H](N(C)C)C(O)=C(C(N)=O)C(=O)[C@@]3(O)C(O)=C1C2=O.Cl,303.15,0.000986,n-propanol,CCCO,10.1016/j.jct.2021.106399
CCN(CC)CCCC(C)Nc1ccnc2cc(Cl)ccc12.O=P(O)(O)O.O=P(O)(O)O,303.15,7.87e-06,n-propanol,CCCO,10.1016/j.jct.2020.106368
CCCCN(CCCC)CC(O)c1cc(Cl)cc2c1-c1ccc(Cl)cc1/C2=C/c1ccc(Cl)cc1,303.15,0.0003877,n-propanol,CCCO,10.1016/j.jct.2020.106323
COCCOC(=O)C1=C(C)NC(C)=C(C(=O)OC(C)C)C1c1cccc([N+](=O)[O-])c1,303.15,0.01953,n-propanol,CCCO,10.1016/j.jct.2020.106259
O=c1cc(CO)occ1O,303.15,0.006458,n-propanol,CCCO,10.1016/j.jct.2020.106280
CC#CCn1c(N2CCC[C@@H](N)C2)nc2c1c(=O)n(Cc1nc(C)c3ccccc3n1)c(=O)n2C,303.15,0.00093,n-propanol,CCCO,10.1016/j.jct.2020.106273
O=Cc1cc(Br)c(O)c(Br)c1,303.15,0.006696,n-propanol,CCCO,10.1016/j.jct.2020.106252
O=C(O)CCc1nc(-c2ccccc2)c(-c2ccccc2)o1,303.15,0.00794,n-propanol,CCCO,10.1016/j.jct.2020.106239
CC(C)Oc1ccc2c(=O)c(-c3ccccc3)coc2c1,303.15,0.005091,n-propanol,CCCO,10.1016/j.jct.2020.106231
N#Cc1ccc2c(c1)OCO2,303.15,0.02003,n-propanol,CCCO,10.1016/j.jct.2020.106191
COc1cccc(C=O)c1O,303.15,0.5545,n-propanol,CCCO,10.1016/j.jct.2020.106199
Cn1c(=O)c2c(ncn2CC2OCCO2)n(C)c1=O,303.15,0.0012,n-propanol,CCCO,10.1016/j.jct.2020.106126
O=c1[nH]c(=O)n(C2CCCO2)cc1F,303.15,0.004196,n-propanol,CCCO,10.1016/j.jct.2020.106090
CNC[C@H](O)c1cccc(O)c1.Cl,303.15,0.01329,n-propanol,CCCO,10.1016/j.jct.2019.105959
Cc1ccc(NC(=O)c2ccc(CN3CCN(C)CC3)cc2)cc1Nc1nccc(-c2cccnc2)n1,303.15,0.00104,n-propanol,CCCO,10.1016/j.jct.2019.106031
COC(=O)Nc1nc2ccc(Sc3ccccc3)cc2[nH]1,303.15,0.00011107,n-propanol,CCCO,10.1016/j.jct.2019.07.018
Cl.c1ccc([C@H]2CN3CCSC3=N2)cc1,303.15,0.009035,n-propanol,CCCO,10.1016/j.jct.2019.105882
Cc1c(C(N)=O)cc([N+](=O)[O-])cc1[N+](=O)[O-],303.15,0.003507,n-propanol,CCCO,10.1016/j.jct.2019.01.013
O=C1c2cccc(O)c2C(=O)c2c(O)cc(CO)cc21,303.15,6.56e-05,n-propanol,CCCO,10.1016/j.jct.2016.02.020
c1ccc(-c2nnn[nH]2)cc1,303.15,0.01885,n-propanol,CCCO,10.1016/j.jct.2017.04.019
S=c1[nH]c2ccccc2s1,303.15,0.03089,n-propanol,CCCO,10.1016/j.jct.2017.05.013
Cc1cc(C)[nH]n1,303.15,0.1842,n-propanol,CCCO,10.1016/j.jct.2017.02.011
Cc1ccc(N)c([N+](=O)[O-])c1,303.15,0.02573,n-propanol,CCCO,10.1016/j.jct.2017.02.008
Nc1ccc(N)c([N+](=O)[O-])c1,303.15,0.007318,n-propanol,CCCO,10.1016/j.jct.2017.01.006
CC(C)c1ncc[nH]1,303.15,0.1531,n-propanol,CCCO,10.1016/j.jct.2016.12.028
Clc1ccc2c(c1)Nc1ccccc1S2,303.15,0.005753,n-propanol,CCCO,10.1016/j.jct.2016.11.029
Nc1ccc([N+](=O)[O-])cc1N,303.15,0.001151,n-propanol,CCCO,10.1016/j.jct.2016.11.014
Nc1cc(Cl)ccc1C(=O)O,303.15,0.01983,n-propanol,CCCO,10.1016/j.jct.2016.11.019
CC(C)(C)C(O)(CCc1ccc(Cl)cc1)Cn1cncn1,303.15,0.0296,n-propanol,CCCO,10.1016/j.jct.2016.11.032
Cc1cc([N+](=O)[O-])ccc1N,303.15,0.0162,n-propanol,CCCO,10.1016/j.jct.2016.10.037
CC(=O)[C@@]1(O)CC[C@H]2[C@@H]3CCC4=CC(=O)CC[C@]4(C)[C@H]3[C@@H](O)C[C@@]21C,303.15,0.01426,n-propanol,CCCO,10.1016/j.jct.2016.10.046
Cn1cnc([N+](=O)[O-])c1Cl,303.15,0.003422,n-propanol,CCCO,10.1016/j.jct.2016.10.006
CC(C)C(=O)OCC(=O)[C@@]12O[C@H](C3CCCCC3)O[C@@H]1C[C@H]1[C@@H]3CCC4=CC(=O)C=C[C@]4(C)[C@H]3[C@@H](O)C[C@@]12C,303.15,0.0567,n-propanol,CCCO,10.1016/j.jct.2016.10.014
COc1cc(Cl)nc(N)n1,303.15,0.005017,n-propanol,CCCO,10.1016/j.jct.2016.10.020
NC(=O)N1c2ccccc2CC(=O)c2ccccc21,303.15,0.000475,n-propanol,CCCO,10.1016/j.jct.2016.09.011
O=Cc1ccc([N+](=O)[O-])cc1,303.15,0.02723,n-propanol,CCCO,10.1016/j.jct.2016.09.012
Nc1nnc[nH]1,303.15,0.02197,n-propanol,CCCO,10.1016/j.jct.2016.09.033
C[C@@H]1O[C@@H](OC[C@H]2O[C@@H](Oc3c(-c4ccc(OCCO)c(OCCO)c4)oc4cc(OCCO)cc(O)c4c3=O)[C@H](O)[C@@H](O)[C@@H]2O)[C@H](O)[C@H](O)[C@H]1O,303.15,0.000258,n-propanol,CCCO,10.1016/j.jct.2016.09.015
O=Cc1ccc(C=O)cc1,303.15,0.02563,n-propanol,CCCO,10.1016/j.jct.2016.07.013
CC1=NN(c2ccc(C)cc2)C(=O)C1,303.15,0.04142,n-propanol,CCCO,10.1016/j.jct.2016.08.007
O=[N+]([O-])c1ccc(O)c2ncccc12,303.15,0.001434,n-propanol,CCCO,10.1016/j.jct.2016.04.018
Cc1ccc(C(C)C)c(O)c1,303.15,0.6557,n-propanol,CCCO,10.1016/j.jct.2015.09.010
O=C1NC(=O)c2ccccc21,303.15,0.003084,n-propanol,CCCO,10.1016/j.jct.2015.10.024
Cc1cccc([N+](=O)[O-])c1N,303.15,0.03051,n-propanol,CCCO,10.1016/j.jct.2016.05.027
Cc1cc(C(=O)O)ccc1[N+](=O)[O-],303.15,0.01155,n-propanol,CCCO,10.1016/j.jct.2016.07.023
N=C(Nc1ccccc1)Nc1ccccc1,303.15,0.0406,n-propanol,CCCO,10.1016/j.jct.2016.03.011
CC(C)(C)[C@H](O)[C@H](Cc1ccc(Cl)cc1)n1cncn1,303.15,0.02152,n-propanol,CCCO,10.1016/j.jct.2016.09.038
CCOC(=O)Cc1c(C(=O)OCC)sc(N)c1C#N,303.15,0.009609,n-propanol,CCCO,10.1016/j.jct.2015.11.025
Nc1ccc(N2CCOCC2=O)cc1,303.15,0.001053,n-propanol,CCCO,10.1016/j.jct.2016.01.022
O=C1c2cccc(Cl)c2C(=O)N1c1ccccc1,303.15,0.0004106,n-propanol,CCCO,10.1016/j.jct.2016.01.003
CC(C)(C)C(=O)C(Oc1ccc(Cl)cc1)n1ccnc1,303.15,0.1899,n-propanol,CCCO,10.1016/j.jct.2014.04.011
CN(C)[C@@H]1C(O)=C(C(N)=O)C(=O)[C@@]2(O)C(O)=C3C(=O)c4c(O)cccc4[C@@](C)(O)[C@H]3C[C@@H]12.Cl,303.15,0.0003182,n-propanol,CCCO,10.1016/j.jct.2012.08.007
Clc1ncnc2[nH]ccc12,303.15,0.0205,n-propanol,CCCO,10.1016/j.jct.2021.106493
Nc1nc(N)nc(NC2CC2)n1,303.15,0.001629,n-propanol,CCCO,10.1016/j.fluid.2018.07.024
Cn1cc([N+](=O)[O-])cn1,303.15,0.003314,n-propanol,CCCO,10.1016/j.fluid.2018.05.023
CC1(C)CCC2=C(O1)c1ccccc1C(=O)C2=O,303.15,0.00793,n-propanol,CCCO,10.1016/j.fluid.2018.05.005
Cc1cc(C)c(C(=O)P(=O)(c2ccccc2)c2ccccc2)c(C)c1,303.15,0.2262,n-propanol,CCCO,10.1016/j.fluid.2018.01.015
Cn1nc([N+](=O)[O-])c([N+](=O)[O-])c1[N+](=O)[O-],303.15,0.011795,n-propanol,CCCO,10.1016/j.fluid.2017.04.008
CC(=O)NC[C@H]1CN(c2ccc(N3CCOCC3)c(F)c2)C(=O)O1,303.15,0.001838,n-propanol,CCCO,10.1016/j.fluid.2016.10.021
CCOc1ccccc1C(N)=O,303.15,0.01787,n-propanol,CCCO,10.1016/j.fluid.2016.08.019
O=c1ccc2ccccc2o1,303.15,0.07806,n-propanol,CCCO,10.1016/j.fluid.2015.03.022
N=C(N)N.O=[N+]([O-])O,303.15,0.0041,n-propanol,CCCO,10.1016/j.fluid.2014.12.037
CCn1c2ccccc2c2ccccc21,303.15,0.024,n-propanol,CCCO,10.1016/j.fluid.2014.06.030
Cc1nc2n(c(=O)c1CCN1CCC(c3noc4cc(F)ccc34)CC1)CCCC2,303.15,0.00381,n-propanol,CCCO,10.1016/j.fluid.2014.04.028
COC(=O)C1CC(=O)C(C(=O)OC)CC1=O,303.15,0.00081,n-propanol,CCCO,10.1016/j.fluid.2013.06.037
COC(=O)[C@@H](N)CS.Cl,303.15,0.01058,n-butanol,CCCCO,10.1021/acs.jced.0c00795
CC1(C)NC(=O)NC1=O,303.15,0.04465,n-butanol,CCCCO,10.1021/acs.jced.9b01020
NS(=O)(=O)Cc1noc2ccccc12,303.15,0.00122,n-butanol,CCCCO,10.1021/acs.jced.0c00249
CC(=O)Oc1ccccc1C(=O)Nc1ncc([N+](=O)[O-])s1,303.15,0.000471,n-butanol,CCCCO,10.1021/acs.jced.0c00254
O=Cc1cc(Br)c(O)c(Br)c1,303.15,0.008456,n-butanol,CCCCO,10.1021/acs.jced.0c00376
CC(=O)Nc1ccc(OC(=O)c2ccccc2OC(C)=O)cc1,303.15,0.000557,n-butanol,CCCCO,10.1021/acs.jced.0c00301
CCCSc1nc(N[C@@H]2C[C@H]2c2ccc(F)c(F)c2)c2nnn([C@@H]3C[C@H](OCCO)[C@@H](O)[C@H]3O)c2n1,303.15,0.008952,n-butanol,CCCCO,10.1021/acs.jced.0c00127
O=C(Nc1ccccc1)c1ccccc1,303.15,0.008772,n-butanol,CCCCO,10.1021/acs.jced.0c00167
Nc1ccc(S(N)(=O)=O)cc1,303.15,0.002268,n-butanol,CCCCO,10.1021/acs.jced.9b00411
O=[N+]([O-])N=C1NCCN1Cc1ccc(Cl)nc1,303.15,0.0006,n-butanol,CCCCO,10.1021/acs.jced.0c00558
O=C1CC[C@@H](C(=O)N2CSC[C@H]2C(=O)O)N1,303.15,0.00072,n-butanol,CCCCO,10.1021/acs.jced.0c00616
O=C(O)COc1ccc(Cl)cc1,303.15,0.05007,n-butanol,CCCCO,10.1021/acs.jced.1c00153
Cc1cc(Cl)cc(C(=O)O)c1N,303.15,0.008201,n-butanol,CCCCO,10.1021/acs.jced.1c00047
Cc1c(N)cccc1C(=O)O,303.15,0.004417,n-butanol,CCCCO,10.1021/acs.jced.1c00109
c1ccc(-n2c(-c3cc(-c4nc5ccccc5n4-c4ccccc4)cc(-c4nc5ccccc5n4-c4ccccc4)c3)nc3ccccc32)cc1,303.15,0.00155,n-butanol,CCCCO,10.1021/acs.jced.1c00163
CC(=O)Nc1ccccc1[N+](=O)[O-],303.15,0.02321,n-butanol,CCCCO,10.1021/acs.jced.1c00037
CSCCC(NC(C)=O)C(=O)O,303.15,0.0591,n-butanol,CCCCO,10.1021/acs.jced.1c00064
Nc1cccc(S(=O)(=O)c2cccc(N)c2)c1,303.15,0.002055,n-butanol,CCCCO,10.1021/acs.jced.1c00062
Cn1c(=O)c2c(ncn2CC2OCCO2)n(C)c1=O,303.15,0.0025176,n-butanol,CCCCO,10.1021/acs.jced.0c01088
O=C(O)[C@@H]1C[C@@H](O)CN1,303.15,0.000181,n-butanol,CCCCO,10.1021/acs.jced.0c00794
O=Cc1cc(C=O)cc(C=O)c1,303.15,0.001815,n-butanol,CCCCO,10.1021/acs.jced.0c00776
OCC(O)COc1ccc(Cl)cc1,303.15,0.09234,n-butanol,CCCCO,10.1021/acs.jced.0c00900
COc1cc2nc(Cl)nc(N)c2cc1OC,303.15,0.000648,n-butanol,CCCCO,10.1021/acs.jced.0c00506
CCOc1ccccc1C(N)=O,303.15,0.015752,n-butanol,CCCCO,10.1021/acs.jced.0c01081
O=C(Nc1ccccc1)c1ccccc1O,303.15,0.0247274,n-butanol,CCCCO,10.1021/acs.jced.0c01078
O=C(O)c1cccc(O)c1O,303.15,0.08056,n-butanol,CCCCO,10.1021/acs.jced.0c01032
CC(=O)O[C@]1(C(C)=O)CC[C@H]2[C@@H]3C=C(Cl)C4=CC(=O)[C@@H]5C[C@@H]5[C@]4(C)[C@H]3CC[C@@]21C,303.15,0.00042623,n-butanol,CCCCO,10.1021/acs.jced.0c00803
c1ccc2[nH]c(-c3cscn3)nc2c1,303.15,0.002661,n-butanol,CCCCO,10.1021/acs.jced.0c00724
Nc1ccc(Cc2ccc(N)c(Cl)c2)cc1Cl,303.15,0.04844,n-butanol,CCCCO,10.1021/acs.jced.0c00655
Nc1cccc(Cl)c1C(=O)O,303.15,0.04392,n-butanol,CCCCO,10.1021/acs.jced.0c00320
CC1=NN(c2ccccc2)C(=O)C1,303.15,0.037215,n-butanol,CCCCO,10.1021/acs.jced.0c00290
C#C[C@]1(O)CC[C@H]2[C@@H]3CCC4=CC(=O)CC[C@@H]4[C@H]3C(=C)C[C@@]21CC,303.15,0.0126,n-butanol,CCCCO,10.1021/acs.jced.0c00201
Cl.N=C(N=C(N)N)N1CCOCC1,303.15,0.001007,n-butanol,CCCCO,10.1021/acs.jced.0c00015
Nc1nc(=O)[nH]cc1F,303.15,0.0005667,n-butanol,CCCCO,10.1021/acs.jced.1c00206
O=C(O)CNCc1ccccc1,303.15,0.000262,n-butanol,CCCCO,10.1021/acs.jced.1c00050
O=C(O)c1cccc([N+](=O)[O-])c1O,303.15,0.06316,n-butanol,CCCCO,10.1021/acs.jced.1c00259
Cl.N[C@@H](Cc1ccccc1)C(=O)OCc1ccccc1,303.15,0.001911,n-butanol,CCCCO,10.1021/acs.jced.1c00239
O=C1CCc2cc(OCCCCc3nnnn3C3CCCCC3)ccc2N1,303.15,0.002225,n-butanol,CCCCO,10.1021/acs.jced.1c00302
CCOC(=O)[C@@H]1CSCN1.Cl,303.15,0.008286,n-butanol,CCCCO,10.1021/acs.jced.1c00079
CC(C)(C)OC(=O)N1CCC[C@H]1C(=O)O,303.15,0.125638,n-butanol,CCCCO,10.1021/acs.jced.1c00201
CNC(=O)c1cc(Oc2ccc(N)cc2)ccn1,303.15,0.01346,n-butanol,CCCCO,10.1021/acs.jced.1c00232
Nc1cccc(C(=O)O)c1,303.15,0.009339,n-butanol,CCCCO,10.1021/acs.jced.1c00247
CCO.C[C@H]1c2cccc(O)c2C(O)=C2C(=O)[C@]3(O)C(O)=C(C(N)=O)C(=O)[C@@H](N(C)C)[C@@H]3[C@@H](O)[C@@H]21.C[C@H]1c2cccc(O)c2C(O)=C2C(=O)[C@]3(O)C(O)=C(C(N)=O)C(=O)[C@@H](N(C)C)[C@@H]3[C@@H](O)[C@@H]21.Cl.Cl.O,303.15,0.008128,n-butanol,CCCCO,10.1021/acs.jced.0c00097
O=C(O)c1cc([N+](=O)[O-])cc([N+](=O)[O-])c1O,303.15,0.03014,n-butanol,CCCCO,10.1021/acs.jced.0c00122
O=C1N=c2ccccc2=N1,303.15,0.0048722,n-butanol,CCCCO,10.1021/acs.jced.0c00165
CC(C)(c1ccc(O)cc1)c1ccc(O)cc1,303.15,0.1488,n-butanol,CCCCO,10.1021/acs.jced.0c00166
O=c1cc(CBr)c2ccccc2[nH]1,303.15,0.000461,n-butanol,CCCCO,10.1021/acs.jced.0c00303
OCc1ccccc1O[C@@H]1OC(CO)[C@@H](O)[C@@H](O)C1O,303.15,0.00024953,n-butanol,CCCCO,10.1021/acs.jced.0c00332
CCOC(=O)[C@@H](N)CCc1ccccc1.Cl,303.15,0.02197,n-butanol,CCCCO,10.1021/acs.jced.1c00485