SMILES,"T,K",Solubility,Solvent,SMILES_Solvent,Source
CC1=NN(c2ccccc2)C(=O)C1,303.15,0.048338,"1,4-dioxane",C1COCCO1,10.1021/acs.jced.0c00290
Nc1nc(=O)[nH]cc1F,303.15,2.82e-05,"1,4-dioxane",C1COCCO1,10.1021/acs.jced.1c00206
O=C(O)CNCc1ccccc1,303.15,8.4e-05,"1,4-dioxane",C1COCCO1,10.1021/acs.jced.1c00050
O=C(O)c1cccc([N+](=O)[O-])c1O,303.15,0.04357,"1,4-dioxane",C1COCCO1,10.1021/acs.jced.1c00259
O=C1CCc2cc(OCCCCc3nnnn3C3CCCCC3)ccc2N1,303.15,0.00819,"1,4-dioxane",C1COCCO1,10.1021/acs.jced.1c00302
CCOC(=O)[C@@H]1CSCN1.Cl,303.15,0.000872,"1,4-dioxane",C1COCCO1,10.1021/acs.jced.1c00079
O=C(O)c1cccc(C(=O)O)n1,303.15,0.002503,"1,4-dioxane",C1COCCO1,10.1021/acs.jced.1c00200
Nc1cccc(C(=O)O)c1,303.15,0.04196,"1,4-dioxane",C1COCCO1,10.1021/acs.jced.1c00247
O=C(O)c1cc([N+](=O)[O-])cc([N+](=O)[O-])c1O,303.15,0.06217,"1,4-dioxane",C1COCCO1,10.1021/acs.jced.0c00122
O=C1N=c2ccccc2=N1,303.15,0.0036379,"1,4-dioxane",C1COCCO1,10.1021/acs.jced.0c00165
CC(C)(c1ccc(O)cc1)c1ccc(O)cc1,303.15,0.2636,"1,4-dioxane",C1COCCO1,10.1021/acs.jced.0c00166
O=c1cc(CBr)c2ccccc2[nH]1,303.15,0.00092,"1,4-dioxane",C1COCCO1,10.1021/acs.jced.0c00303
OCc1ccccc1O[C@@H]1OC(CO)[C@@H](O)[C@@H](O)C1O,303.15,0.00097098,"1,4-dioxane",C1COCCO1,10.1021/acs.jced.0c00332
OC[C@H]1O[C@@H](Oc2ccc(O)cc2)[C@H](O)[C@@H](O)[C@@H]1O,303.15,0.005788,"1,4-dioxane",C1COCCO1,10.1021/acs.jced.0c00353
CCOC(=O)[C@@H](N)CCc1ccccc1.Cl,303.15,0.00381,"1,4-dioxane",C1COCCO1,10.1021/acs.jced.1c00485
CC(=O)NCC(=O)O,303.15,0.001581,"1,4-dioxane",C1COCCO1,10.1021/acs.jced.0c00983
CC(=O)N1CCC[C@H]1C(=O)O,303.15,0.04158,"1,4-dioxane",C1COCCO1,10.1021/acs.jced.1c00032
NC1CCSC1=O,303.15,0.000691,"1,4-dioxane",C1COCCO1,10.1021/acs.jced.0c01089
C=CC(=O)NC(C)(C)CS(=O)(=O)O,303.15,0.0004255,"1,4-dioxane",C1COCCO1,10.1021/acs.jced.0c00578
O=C(O)Cc1ccccc1[N+](=O)[O-],303.15,0.07323,"1,4-dioxane",C1COCCO1,10.1021/acs.jced.0c00543
O=[N+]([O-])N(CCO)CCO.O=[N+]([O-])O.O=[N+]([O-])O,303.15,0.42489,"1,4-dioxane",C1COCCO1,10.1021/acs.jced.0c00211
N[C@@H](CS)C(=O)O,303.15,0.00016,"1,4-dioxane",C1COCCO1,10.1021/acs.jced.0c00031
Oc1ccc(OCc2ccccc2)cc1,303.15,0.2582,"1,4-dioxane",C1COCCO1,10.1021/acs.jced.9b00817
O=C([O-])/C=C/C(=O)O.[Na+],303.15,0.0001652,"1,4-dioxane",C1COCCO1,10.1021/acs.jced.9b01203
O=c1[nH]c2ccccc2c(=O)o1,303.15,0.01188,"1,4-dioxane",C1COCCO1,10.1021/acs.jced.9b01164
Oc1c(Br)cc(Br)c2cccnc12,303.15,0.006392,"1,4-dioxane",C1COCCO1,10.1021/acs.jced.9b01190
CN(C)Cc1c[nH]c2ccccc12,303.15,0.06234,"1,4-dioxane",C1COCCO1,10.1021/acs.jced.9b00911
COc1cc([N+](=O)[O-])ccc1N,303.15,0.06519,"1,4-dioxane",C1COCCO1,10.1021/acs.jced.9b00991
O=Cc1ccc(O)c(Br)c1,303.15,0.02554,"1,4-dioxane",C1COCCO1,10.1021/acs.jced.9b01004
CCCc1ncc(C[n+]2ccccc2C)c(N)n1.Cl.[Cl-],303.15,9.99e-05,"1,4-dioxane",C1COCCO1,10.1021/acs.jced.9b00999
Nc1ccc(Cl)cc1[N+](=O)[O-],303.15,0.05088,"1,4-dioxane",C1COCCO1,10.1021/acs.jced.9b00919
O=C(O)c1cccnc1Cl,303.15,0.01362,"1,4-dioxane",C1COCCO1,10.1021/acs.jced.9b00661
NC(N)=NC(N)=NCCc1ccccc1,303.15,0.0003117,"1,4-dioxane",C1COCCO1,10.1021/acs.jced.9b00844
CN1CCN(c2c(F)cc3c(=O)c(C(=O)O)cn4c3c2OCN4C)CC1,303.15,0.0001875,"1,4-dioxane",C1COCCO1,10.1021/acs.jced.9b00490
Nc1c(Cl)cc([N+](=O)[O-])cc1Cl,303.15,0.03369,"1,4-dioxane",C1COCCO1,10.1021/acs.jced.9b00778
CN(C)[C@@H]1C(=O)C(C(N)=O)=C(O)[C@@]2(O)C(=O)C3=C(O)c4c(O)cccc4C[C@H]3C[C@@H]12,303.15,0.002196,"1,4-dioxane",C1COCCO1,10.1021/acs.jced.9b00693
N[C@H](Cc1c[nH]cn1)C(=O)O,303.15,0.01017,"1,4-dioxane",C1COCCO1,10.1021/acs.jced.9b00659
O=P(O)(O)c1ccccc1,303.15,0.2431,"1,4-dioxane",C1COCCO1,10.1021/acs.jced.9b00362
OCc1ccc(O[C@@H]2O[C@H](CO)[C@@H](O)[C@H](O)[C@H]2O)cc1,303.15,0.00493,"1,4-dioxane",C1COCCO1,10.1021/acs.jced.9b00286
N=C(N)NC(N)=S,303.15,0.015061,"1,4-dioxane",C1COCCO1,10.1021/acs.jced.9b00458
Cc1nc(N)nc(N)n1,303.15,0.001074,"1,4-dioxane",C1COCCO1,10.1021/acs.jced.9b00593
Cc1cnc(C(=O)O)cn1,303.15,2.842e-05,"1,4-dioxane",C1COCCO1,10.1021/acs.jced.9b00406
Nc1nnn[nH]1,303.15,0.03276,"1,4-dioxane",C1COCCO1,10.1021/acs.jced.9b00385
Sc1nc2ccccc2[nH]1,303.15,0.021,"1,4-dioxane",C1COCCO1,10.1021/acs.jced.9b00190
CC(=NC#N)N(C)Cc1ccc(Cl)nc1,303.15,0.1132,"1,4-dioxane",C1COCCO1,10.1021/acs.jced.9b00294
CN(C)/C=C/C(=O)c1cccnc1,303.15,0.04272,"1,4-dioxane",C1COCCO1,10.1021/acs.jced.9b00047
O=Cc1cc([N+](=O)[O-])ccc1O,303.15,0.03134,"1,4-dioxane",C1COCCO1,10.1021/acs.jced.9b00232
CC1=NNC(=O)N(/N=C/c2cccnc2)C1,303.15,0.0007281,"1,4-dioxane",C1COCCO1,10.1021/acs.jced.9b00229
N[C@H](CC(=O)O)C(=O)O,303.15,0.007825,"1,4-dioxane",C1COCCO1,10.1021/acs.jced.9b00320
N#CCc1ccccc1[N+](=O)[O-],303.15,0.2568,"1,4-dioxane",C1COCCO1,10.1021/acs.jced.9b00243
Nc1cc([N+](=O)[O-])ccc1Cl,303.15,0.1417,"1,4-dioxane",C1COCCO1,10.1021/acs.jced.8b00931
CCOC(=O)[C@@H](C)Oc1ccc(Oc2cnc3cc(Cl)ccc3n2)cc1,303.15,0.07254,"1,4-dioxane",C1COCCO1,10.1021/acs.jced.8b01181
N#CCC(N)=O,303.15,0.02265,"1,4-dioxane",C1COCCO1,10.1021/acs.jced.8b01205
Cc1cccc(C(=O)O)c1N,303.15,0.1369,"1,4-dioxane",C1COCCO1,10.1021/acs.jced.8b01226
O=C(O)Cc1c[nH]c2ccccc12,303.15,2.506e-05,"1,4-dioxane",C1COCCO1,10.1021/acs.jced.8b01265
CC(=O)N(CC(O)CO)c1c(I)c(C(=O)NCC(O)CO)c(I)c(C(=O)NCC(O)CO)c1I,303.15,0.0001002,"1,4-dioxane",C1COCCO1,10.1021/acs.jced.8b01101
COC(=O)Nc1nc2ccc(C(=O)c3ccc(F)cc3)cc2[nH]1,303.15,0.00014,"1,4-dioxane",C1COCCO1,10.1021/acs.jced.8b01126
Nc1nc(Cl)c2[nH]cnc2n1,303.15,0.0001349,"1,4-dioxane",C1COCCO1,10.1021/acs.jced.8b01014
COc1c(N2CCNC(C)C2)c(F)cc2c(=O)c(C(=O)O)cn(C3CC3)c12,303.15,0.001492,"1,4-dioxane",C1COCCO1,10.1021/acs.jced.8b00902
N#CCc1ccc([N+](=O)[O-])cc1,303.15,0.0888,"1,4-dioxane",C1COCCO1,10.1021/acs.jced.8b00811
CC[C@@H](C(N)=O)N1CCCC1=O,303.15,0.01403,"1,4-dioxane",C1COCCO1,10.1021/acs.jced.8b00720
CC1(C)COP(=O)(C(Nc2ccccc2)c2ccccc2)OC1,303.15,0.01026,"1,4-dioxane",C1COCCO1,10.1021/acs.jced.7b00585
CS(=O)(=O)c1ccc([C@@H](O)[C@@H](CO)NC(=O)C(Cl)Cl)cc1,303.15,0.0009734,"1,4-dioxane",C1COCCO1,10.1021/acs.jced.7b00542
Nc1nc(Cl)cc(Cl)n1,303.15,0.01819,"1,4-dioxane",C1COCCO1,10.1021/acs.jced.8b00292
On1nnc2ccccc21,303.15,0.02466,"1,4-dioxane",C1COCCO1,10.1021/acs.jced.7b00316
COc1ccc(CN2CCNCC2)c(OC)c1OC.Cl,303.15,8.25e-05,"1,4-dioxane",C1COCCO1,10.1021/acs.jced.8b00235
O=c1nc[nH]c2[nH]ncc12,303.15,7.028e-05,"1,4-dioxane",C1COCCO1,10.1021/acs.jced.8b00430
Nc1ccc(S(=O)(=O)Nc2ccc(Cl)nn2)cc1,303.15,0.1433,"1,4-dioxane",C1COCCO1,10.1021/acs.jced.7b01134
O=C1NC23NC(=O)NC2(N1)C(=O)NC3=O,303.15,0.0006014,"1,4-dioxane",C1COCCO1,10.1021/acs.jced.6b00349
O=C1NC(=O)c2cc([N+](=O)[O-])ccc21,303.15,0.03181,"1,4-dioxane",C1COCCO1,10.1021/acs.jced.6b00230
Nc1cc(Cl)nnc1Cl,303.15,0.0055632,"1,4-dioxane",C1COCCO1,10.1021/je500286x
O=C1Nc2ccccc2C1=O,303.15,0.021824,"1,4-dioxane",C1COCCO1,10.1021/je500396b
OC(Cn1cncn1)(Cn1cncn1)c1ccc(F)cc1F,303.15,0.0165,"1,4-dioxane",C1COCCO1,10.1021/je4010257
O=C(O)c1cccc(Cl)c1C(=O)c1ccccc1,303.15,0.03396,"1,4-dioxane",C1COCCO1,10.1021/je400246s
O=C1c2ccccc2C(=O)c2c(Cl)cccc21,303.15,0.006911,"1,4-dioxane",C1COCCO1,10.1021/je400246s
COc1ccc(C(=O)/C=C/c2ccc(-c3cccc([N+](=O)[O-])c3)o2)cc1,303.15,0.007334,"1,4-dioxane",C1COCCO1,10.1021/je900370q
O=C(/C=C/c1ccc(-c2cccc([N+](=O)[O-])c2)o1)c1ccc([N+](=O)[O-])cc1,303.15,0.002324,"1,4-dioxane",C1COCCO1,10.1021/je900370q
O=C(/C=C/c1ccc(-c2cccc([N+](=O)[O-])c2)o1)c1cccc([N+](=O)[O-])c1,303.15,0.006009,"1,4-dioxane",C1COCCO1,10.1021/je900370q
Nc1ccc(C(=O)/C=C/c2ccc(-c3cccc([N+](=O)[O-])c3)o2)cc1,303.15,0.002484,"1,4-dioxane",C1COCCO1,10.1021/je900370q
O=C(/C=C/c1ccc(-c2cccc([N+](=O)[O-])c2)o1)c1ccc(Cl)cc1,303.15,0.002721,"1,4-dioxane",C1COCCO1,10.1021/je900370q
O=C(/C=C/c1ccc(-c2cccc([N+](=O)[O-])c2)o1)c1ccc(Br)cc1,303.15,0.004913,"1,4-dioxane",C1COCCO1,10.1021/je900370q
O=C(/C=C/c1ccc(-c2cccc([N+](=O)[O-])c2)o1)c1ccccc1,303.15,0.005604,"1,4-dioxane",C1COCCO1,10.1021/je900370q
O=C(/C=C/c1ccc(-c2cccc([N+](=O)[O-])c2)o1)c1ccc(O)cc1,303.15,0.005801,"1,4-dioxane",C1COCCO1,10.1021/je900370q
O=C(/C=C/c1ccc(-c2cccc([N+](=O)[O-])c2)o1)CO,303.15,0.007072,"1,4-dioxane",C1COCCO1,10.1021/je900370q
O=C(/C=C/c1ccc(-c2cccc([N+](=O)[O-])c2)o1)c1ccc2ccc(=O)oc2c1,303.15,0.006234,"1,4-dioxane",C1COCCO1,10.1021/je900370q
O=C1OC(=O)c2c(Cl)cccc21,303.15,0.3281,"1,4-dioxane",C1COCCO1,10.1021/je800869g
O=C1OC(=O)c2cc(Cl)ccc21,303.15,0.1664,"1,4-dioxane",C1COCCO1,10.1021/je800869g
O=C1OC(=O)C2C3C=CC(O3)C12,303.15,0.042065,"1,4-dioxane",C1COCCO1,10.1021/acs.jced.0c00569
CC(C(=O)O)c1ccc2c(c1)CC(=O)c1ccccc1S2,303.15,0.12698,"1,4-dioxane",C1COCCO1,10.1021/acs.jced.9b01180
CC(=O)Oc1ccc(C(c2ccc(OC(C)=O)cc2)c2ccccn2)cc1,303.15,0.003429,"1,4-dioxane",C1COCCO1,10.1021/acs.jced.9b00728
CS(=O)(=O)c1ccc([C@@H](O)[C@@H](CO)NC(=O)C(Cl)Cl)cc1,303.15,0.0009734,"1,4-dioxane",C1COCCO1,10.1021/acs.jced.8b00179
CC(=O)Nc1ccc(C(=O)O)cc1,303.15,0.003943,"1,4-dioxane",C1COCCO1,10.1016/j.jct.2021.106478
O=c1cc(CO)occ1O,303.15,0.01213,"1,4-dioxane",C1COCCO1,10.1016/j.jct.2020.106280
N#Cc1ccc2c(c1)OCO2,303.15,0.2559,"1,4-dioxane",C1COCCO1,10.1016/j.jct.2020.106191
CN1COCN(Cc2cnc(Cl)s2)C1=N[N+](=O)[O-],303.15,0.005226,"1,4-dioxane",C1COCCO1,10.1016/j.jct.2020.106116
COC(=O)Nc1nc2ccc(Sc3ccccc3)cc2[nH]1,303.15,0.001662,"1,4-dioxane",C1COCCO1,10.1016/j.jct.2019.07.018
Cc1c(C(N)=O)cc([N+](=O)[O-])cc1[N+](=O)[O-],303.15,0.05904,"1,4-dioxane",C1COCCO1,10.1016/j.jct.2019.01.013
c1ccc(-c2nnn[nH]2)cc1,303.15,0.01376,"1,4-dioxane",C1COCCO1,10.1016/j.jct.2017.04.019
S=c1[nH]c2ccccc2s1,303.15,0.0698,"1,4-dioxane",C1COCCO1,10.1016/j.jct.2017.05.013
Clc1ccc(COC(Cn2ccnc2)c2ccc(Cl)cc2Cl)cc1.O=[N+]([O-])O,303.15,0.0004819,"1,4-dioxane",C1COCCO1,10.1016/j.jct.2017.03.038
Cc1ccc(N)c([N+](=O)[O-])c1,303.15,0.09858,"1,4-dioxane",C1COCCO1,10.1016/j.jct.2017.02.008
Nc1ccc(N)c([N+](=O)[O-])c1,303.15,0.06548,"1,4-dioxane",C1COCCO1,10.1016/j.jct.2017.01.006
Nc1ccc([N+](=O)[O-])cc1N,303.15,0.0112,"1,4-dioxane",C1COCCO1,10.1016/j.jct.2016.11.014
Nc1cc(Cl)ccc1C(=O)O,303.15,0.032,"1,4-dioxane",C1COCCO1,10.1016/j.jct.2016.11.019
Cn1cnc([N+](=O)[O-])c1Cl,303.15,0.01509,"1,4-dioxane",C1COCCO1,10.1016/j.jct.2016.10.006
COc1cc(Cl)nc(N)n1,303.15,0.04218,"1,4-dioxane",C1COCCO1,10.1016/j.jct.2016.10.020
O=C(NC[C@H]1CN(c2ccc(N3CCOCC3=O)cc2)C(=O)O1)c1ccc(Cl)s1,303.15,0.0002244,"1,4-dioxane",C1COCCO1,10.1016/j.jct.2016.09.036
Nc1nnc[nH]1,303.15,0.006401,"1,4-dioxane",C1COCCO1,10.1016/j.jct.2016.09.033
C[C@@H]1O[C@@H](OC[C@H]2O[C@@H](Oc3c(-c4ccc(OCCO)c(OCCO)c4)oc4cc(OCCO)cc(O)c4c3=O)[C@H](O)[C@@H](O)[C@@H]2O)[C@H](O)[C@H](O)[C@H]1O,303.15,0.000865,"1,4-dioxane",C1COCCO1,10.1016/j.jct.2016.09.015
CC1=NN(c2ccc(C)cc2)C(=O)C1,303.15,0.06381,"1,4-dioxane",C1COCCO1,10.1016/j.jct.2016.08.007
Cc1cccc([N+](=O)[O-])c1N,303.15,0.2765,"1,4-dioxane",C1COCCO1,10.1016/j.jct.2016.05.027
O=S(=O)(c1ccc(O)cc1)c1ccccc1O,303.15,0.05572,"1,4-dioxane",C1COCCO1,10.1016/j.jct.2016.07.001
Cc1cc(C(=O)O)ccc1[N+](=O)[O-],303.15,0.05999,"1,4-dioxane",C1COCCO1,10.1016/j.jct.2016.07.023
CC(C)(C)[C@H](O)[C@H](Cc1ccc(Cl)cc1)n1cncn1,303.15,0.03806,"1,4-dioxane",C1COCCO1,10.1016/j.jct.2016.09.038
Nc1ccc(N2CCOCC2=O)cc1,303.15,0.01249,"1,4-dioxane",C1COCCO1,10.1016/j.jct.2016.01.022
O=C1c2cccc(Cl)c2C(=O)N1c1ccccc1,303.15,0.01337,"1,4-dioxane",C1COCCO1,10.1016/j.jct.2016.01.003
O=C1NC(=O)C2C3C=CC(C3)C12,303.15,0.057602,"1,4-dioxane",C1COCCO1,10.1016/j.fluid.2019.112301
CC1(C)NC(=O)NC1=O,303.15,0.02786,water,O,10.1021/acs.jced.9b01020
O=Cc1cc(Br)c(O)c(Br)c1,303.15,0.0001671,water,O,10.1021/acs.jced.0c00376
Nc1ccc(S(N)(=O)=O)cc1,303.15,0.001056,water,O,10.1021/acs.jced.9b00411
O=C1CC[C@@H](C(=O)N2CSC[C@H]2C(=O)O)N1,303.15,0.003132,water,O,10.1021/acs.jced.0c00616
Cc1c(N)cccc1C(=O)O,303.15,0.0006688,water,O,10.1021/acs.jced.1c00109
N=C(N)NCCC[C@H](N)C(=O)O.O=C1CC[C@@H](C(=O)O)N1,303.15,0.1779,water,O,10.1021/acs.jced.0c01074
CC(=O)Nc1ccccc1[N+](=O)[O-],303.15,0.00032,water,O,10.1021/acs.jced.1c00037
CSCCC(NC(C)=O)C(=O)O,303.15,0.01362,water,O,10.1021/acs.jced.1c00064
O=C(O)c1ccc(CO)cc1,303.15,0.0005317,water,O,10.1021/acs.jced.1c00035
Nc1cccc(S(=O)(=O)c2cccc(N)c2)c1,303.15,4.294e-05,water,O,10.1021/acs.jced.1c00062
O=C(O)[C@@H]1C[C@@H](O)CN1,303.15,0.053031,water,O,10.1021/acs.jced.0c00794
O=Cc1cc(C=O)cc(C=O)c1,303.15,0.000132,water,O,10.1021/acs.jced.0c00776
O=C(O)[C@@H]1CSCN1,303.15,0.005019,water,O,10.1021/acs.jced.0c00996
CC(=O)O[C@]1(C(C)=O)CC[C@H]2[C@@H]3C=C(Cl)C4=CC(=O)[C@@H]5C[C@@H]5[C@]4(C)[C@H]3CC[C@@]21C,303.15,3.6742e-06,water,O,10.1021/acs.jced.0c00803
Nc1ccc(Cc2ccc(N)c(Cl)c2)cc1Cl,303.15,0.000342,water,O,10.1021/acs.jced.0c00655
COc1ccccc1OCCNCC(O)COc1cccc2[nH]c3ccccc3c12,303.15,0.04684,water,O,10.1021/acs.jced.0c00040
Nc1cccc(Cl)c1C(=O)O,303.15,0.001396,water,O,10.1021/acs.jced.0c00320
CC1=NN(c2ccccc2)C(=O)C1,303.15,0.000174,water,O,10.1021/acs.jced.0c00290
C#C[C@]1(O)CC[C@H]2[C@@H]3CCC4=CC(=O)CC[C@@H]4[C@H]3C(=C)C[C@@]21CC,303.15,3.65e-05,water,O,10.1021/acs.jced.0c00201
Cl.N=C(N=C(N)N)N1CCOCC1,303.15,0.085322,water,O,10.1021/acs.jced.0c00015
O=C(O)CNCc1ccccc1,303.15,0.013976,water,O,10.1021/acs.jced.1c00050
O=C(O)c1cccc([N+](=O)[O-])c1O,303.15,0.0002631,water,O,10.1021/acs.jced.1c00259
Cl.N[C@@H](Cc1ccccc1)C(=O)OCc1ccccc1,303.15,0.001499,water,O,10.1021/acs.jced.1c00239
CCOC(=O)[C@@H]1CSCN1.Cl,303.15,0.123918,water,O,10.1021/acs.jced.1c00079
CC(C)(C)OC(=O)N1CCC[C@H]1C(=O)O,303.15,0.000593,water,O,10.1021/acs.jced.1c00201
CNC(=O)c1cc(Oc2ccc(N)cc2)ccn1,303.15,0.000598,water,O,10.1021/acs.jced.1c00232
Nc1cccc(C(=O)O)c1,303.15,0.0009764,water,O,10.1021/acs.jced.1c00247
O=C(N[C@H](C(=O)O)c1ccccc1)OCc1ccccc1,303.15,4.5e-05,water,O,10.1021/acs.jced.1c00240
O=C(O)c1cc([N+](=O)[O-])cc([N+](=O)[O-])c1O,303.15,0.001711,water,O,10.1021/acs.jced.0c00122
OCc1ccccc1O[C@@H]1OC(CO)[C@@H](O)[C@@H](O)C1O,303.15,0.00333192,water,O,10.1021/acs.jced.0c00332
OC[C@H]1O[C@@H](Oc2ccc(O)cc2)[C@H](O)[C@@H](O)[C@@H]1O,303.15,0.010771,water,O,10.1021/acs.jced.0c00353
CC(CCc1ccccc1)NCC(O)c1ccc(O)c(C(N)=O)c1.Cl,303.15,0.00145,water,O,10.1021/acs.jced.1c00432
O[C@H]1[C@H](O)[C@@H](O)[C@H](O)[C@@H](O)[C@H]1O,303.15,0.01888506,water,O,10.1021/acs.jced.0c01067
CC(=O)NCC(=O)O,303.15,0.007752,water,O,10.1021/acs.jced.0c00983
CC(=O)N1CCC[C@H]1C(=O)O,303.15,0.02694,water,O,10.1021/acs.jced.1c00032
CCCOC(=O)c1ccc(O)cc1,303.15,3.86e-05,water,O,10.1021/acs.jced.0c00584
O=C(O)Cc1ccccc1[N+](=O)[O-],303.15,0.000185,water,O,10.1021/acs.jced.0c00543
O=C(O)Cc1ccc([N+](=O)[O-])cc1,303.15,0.0003365,water,O,10.1021/acs.jced.0c00182
N[C@@H](CS)C(=O)O,303.15,0.029097,water,O,10.1021/acs.jced.0c00031
Oc1ccc(OCc2ccccc2)cc1,303.15,1.7e-05,water,O,10.1021/acs.jced.9b00817
O=C([O-])/C=C/C(=O)O.[Na+],303.15,0.0113691,water,O,10.1021/acs.jced.9b01203
COC(=O)C1=C(C)NC(C)=C(C(=O)OCC(C)C)C1c1ccccc1[N+](=O)[O-],303.15,1.5e-05,water,O,10.1021/acs.jced.9b01036
Cc1c(Br)cccc1C(=O)O,303.15,0.00485,water,O,10.1021/acs.jced.9b01007
C[C@H](N)C(=O)O,303.15,0.034189,water,O,10.1021/acs.jced.9b00743
COc1cc([N+](=O)[O-])ccc1N,303.15,1.7e-05,water,O,10.1021/acs.jced.9b00991
O=Cc1ccc(O)c(Br)c1,303.15,0.0001959,water,O,10.1021/acs.jced.9b01004
Nc1ccc(Cl)cc1[N+](=O)[O-],303.15,3.3e-05,water,O,10.1021/acs.jced.9b00919
O=S(=O)([O-])c1cccc2c(S(=O)(=O)[O-])cccc12.[Na+].[Na+],303.15,0.0078429,water,O,10.1021/acs.jced.9b00029
O=C(O)c1cccnc1Cl,303.15,0.000191,water,O,10.1021/acs.jced.9b00661
O=C(O)[C@@H]1CCCN1,303.15,0.224323,water,O,10.1021/acs.jced.9b00802
NC(N)=NC(N)=NCCc1ccccc1,303.15,0.001071,water,O,10.1021/acs.jced.9b00844
Nc1c(Cl)cc([N+](=O)[O-])cc1Cl,303.15,8.31e-06,water,O,10.1021/acs.jced.9b00778
NCCCCCC(=O)O,303.15,0.144929,water,O,10.1021/acs.jced.9b00543
N[C@H](Cc1c[nH]cn1)C(=O)O,303.15,0.005564,water,O,10.1021/acs.jced.9b00659
O=[N+]([O-])c1ncccc1O,303.15,0.00393,water,O,10.1021/acs.jced.9b00564
O=C(O)C=CC(=O)O.OCCOCCN1CCN(C2=Nc3ccccc3Sc3ccccc32)CC1.OCCOCCN1CCN(C2=Nc3ccccc3Sc3ccccc32)CC1,303.15,7.99e-05,water,O,10.1021/acs.jced.7b00518
O=C1C=CC(=O)N1c1ccccc1Br,303.15,0.0005433,water,O,10.1021/acs.jced.9b00560
C[C@]12CCC3=C4CCC(=O)C=C4CC[C@H]3[C@@H]1CC[C@@]2(O)CC#N,303.15,9.62e-06,water,O,10.1021/acs.jced.9b00696
N[C@@H](CO)C(=O)O,303.15,0.07166,water,O,10.1021/acs.jced.9b00460
Cc1nc(N)nc(N)n1,303.15,0.000285,water,O,10.1021/acs.jced.9b00593
N[C@@H](Cc1c[nH]c2ccccc12)C(=O)O,303.15,0.00154,water,O,10.1021/acs.jced.9b00562
Cc1cnc(C(=O)O)cn1,303.15,7.7e-06,water,O,10.1021/acs.jced.9b00406
NNC(=O)NN.O=[N+]([O-])NC1=NC(C2N=NC(N[N+](=O)[O-])=N2)N=N1,303.15,3.07e-05,water,O,10.1021/acs.jced.9b00275
Cc1c(C(=O)O)cc([N+](=O)[O-])cc1[N+](=O)[O-],303.15,4.549e-05,water,O,10.1021/acs.jced.9b00497
CC(=NC#N)N(C)Cc1ccc(Cl)nc1,303.15,0.00045,water,O,10.1021/acs.jced.9b00294
Cc1n[nH]c2cc([N+](=O)[O-])ccc12,303.15,8.01e-05,water,O,10.1021/acs.jced.8b01256
N#Cc1cccc([N+](=O)[O-])c1C#N,303.15,0.0001458,water,O,10.1021/acs.jced.8b01250
O=Cc1cc([N+](=O)[O-])ccc1O,303.15,0.0001098,water,O,10.1021/acs.jced.9b00232
NS(=O)(=O)c1cc2c(cc1Cl)NCNS2(=O)=O,303.15,5.2e-05,water,O,10.1021/acs.jced.9b00220
N[C@H](CC(=O)O)C(=O)O,303.15,0.0008355,water,O,10.1021/acs.jced.9b00320
N#CCc1ccccc1[N+](=O)[O-],303.15,0.000102,water,O,10.1021/acs.jced.9b00243
N#CCC(N)=O,303.15,0.05191,water,O,10.1021/acs.jced.8b01205
NC(=O)c1ccc([N+](=O)[O-])cc1,303.15,0.000754,water,O,10.1021/acs.jced.9b00065
NC(=O)c1ccc(N)cc1,303.15,0.001837,water,O,10.1021/acs.jced.8b01144
CC(C)N1C(=O)N(c2ccccc2)CSC1=NC(C)(C)C,303.15,8.541e-05,water,O,10.1021/acs.jced.8b01099
COC(=O)Nc1nc2ccc(C(=O)c3ccc(F)cc3)cc2[nH]1,303.15,2.602e-07,water,O,10.1021/acs.jced.8b01126
Nc1nc(Cl)c2[nH]cnc2n1,303.15,1.68e-05,water,O,10.1021/acs.jced.8b01014
N#CCc1ccc([N+](=O)[O-])cc1,303.15,4.273e-05,water,O,10.1021/acs.jced.8b00811
NNC(=O)c1ccncc1,303.15,0.024012,water,O,10.1021/acs.jced.8b00785
CS(=O)(=O)c1ccc([C@@H](O)[C@@H](CO)NC(=O)C(Cl)Cl)cc1,303.15,0.0001325,water,O,10.1021/acs.jced.7b00542
O=c1nc[nH]c2[nH]ncc12,303.15,3.831e-05,water,O,10.1021/acs.jced.8b00430
COc1ccc(CC(=O)O)cc1,303.15,0.0057,water,O,10.1021/acs.jced.8b00271
O=C(O)Cc1ccccc1Cl,303.15,0.000645,water,O,10.1021/acs.jced.8b00139
Nc1ccc(S(=O)(=O)Nc2ccc(Cl)nn2)cc1,303.15,7.528e-05,water,O,10.1021/acs.jced.7b01134
O=C(c1ccccc1)c1ccccc1,303.15,0.0148,water,O,10.1021/acs.jced.8b00196
O=C1O[C@H]([C@@H](O)CO)C(O)=C1O.[Na],303.15,0.0723,water,O,10.1021/acs.jced.7b00846
O=C(O)CS.[Na],303.15,0.1765,water,O,10.1021/acs.jced.7b00245
O=C(/C=C/c1ccc(O)c(O)c1)O[C@H](Cc1ccc(O)c(O)c1)C(=O)O,303.15,0.01652,water,O,10.1021/acs.jced.6b00008
O=C1NC23NC(=O)NC2(N1)C(=O)NC3=O,303.15,0.0002234,water,O,10.1021/acs.jced.6b00349
[NH3+]O.[NH3+]O.[O-]n1nnnc1-c1nnnn1[O-],303.15,3.289e-05,water,O,10.1021/acs.jced.6b00009
OC[C@H](O)[C@@H](O)[C@H](O[C@H]1O[C@H](CO)[C@@H](O)[C@H](O)[C@H]1O)[C@H](O)CO,303.15,0.067109,water,O,10.1021/acs.jced.5b00565
COc1cc(C(=O)O)ccc1O,303.15,0.000205,water,O,10.1021/acs.jced.5b00619
CN1C(C(=O)Nc2ccccn2)=C(O)c2sccc2S1(=O)=O,303.15,5.07e-06,water,O,10.1021/acs.jced.5b00382
C=CC(=O)NC(C)(C)C,303.15,0.001107,water,O,10.1021/acs.jced.5b00135
C=C1C[C@]23C[C@H]1CC[C@H]2[C@@]12CC[C@H](O)[C@@](C)(C(=O)O1)[C@H]2[C@@H]3C(=O)O,303.15,3.4e-05,water,O,10.1021/acs.jced.5b00190
CCOC(=O)C1(c2ccccc2)CCN(CCC(C#N)(c2ccccc2)c2ccccc2)CC1,303.15,1.45e-05,water,O,10.1021/je5010033
CC1(C)COC(=O)[C@@H]1O,303.15,0.3137,water,O,10.1021/je500996n
O=C(O)CCCC[C@@H]1SC[C@@H]2NC(=O)N[C@H]12,303.15,8.18e-06,water,O,10.1021/je500787x
CCN1CCN(c2cc3c(cc2F)c(=O)c(C(=O)O)cn3C2CC2)CC1,303.15,1.15e-05,water,O,10.1021/je5002158
COc1ccc([C@@H]2CC(=O)c3c(O)cc(O[C@@H]4O[C@H](CO[C@@H]5O[C@@H](C)[C@H](O)[C@@H](O)[C@H]5O)[C@@H](O)[C@H](O)[C@H]4O)cc3O2)cc1O,303.15,1.52e-07,water,O,10.1021/je500206w
CN1CC(=O)N2C(CC3c4ccccc4NC3C2C2CCC3OCOC3C2)C1=O,303.15,7.59e-07,water,O,10.1021/je400982r
O=C(O)c1cc2ccccc2[nH]1,303.15,7.03e-05,water,O,10.1021/je400813d
O=[N+]([O-])c1nonc1-c1no[n+]([O-])c1-c1nonc1[N+](=O)[O-],303.15,2.08252e-06,water,O,10.1021/je4005992
CC1=C(C(=O)O)N2C(=O)[C@@H](NC(=O)[C@H](N)C3=CCC=CC3)[C@H]2SC1,303.15,0.00118,water,O,10.1021/je400218d
Nc1cc(N2CCCCC2)nc(N)[n+]1[O-],303.15,0.000258,water,O,10.1021/je1012839