SMILES,"T,K",Solubility,Solvent,SMILES_Solvent,Source
O=[N+]([O-])c1cccc(S(=O)(=O)[O-])c1.[Na+],303.15,7.268e-05,ethyl acetate,CCOC(C)=O,10.1021/acs.jced.5b00783
O=[N+]([O-])c1ccc(S(=O)(=O)[O-])cc1.[Na+],303.15,0.0001311,ethyl acetate,CCOC(C)=O,10.1021/acs.jced.5b00783
Clc1cc(Cl)cc(Cl)c1,303.15,0.2741,ethyl acetate,CCOC(C)=O,10.1021/acs.jced.5b00607
O=S(=O)(c1ccc(O)cc1)c1ccc(O)cc1,303.15,0.0174,ethyl acetate,CCOC(C)=O,10.1021/acs.jced.5b00714
CN1C(C(=O)Nc2ccccn2)=C(O)c2sccc2S1(=O)=O,303.15,0.000746,ethyl acetate,CCOC(C)=O,10.1021/acs.jced.5b00382
COC(=O)[C@H](c1ccccc1Cl)N1CCc2sccc2C1.O=S(=O)(O)O,303.15,0.000543,ethyl acetate,CCOC(C)=O,10.1021/acs.jced.5b00306
C=C1C[C@]23C[C@H]1CC[C@H]2[C@@]12CC[C@H](O)[C@@](C)(C(=O)O1)[C@H]2[C@@H]3C(=O)O,303.15,0.019455,ethyl acetate,CCOC(C)=O,10.1021/acs.jced.5b00190
O=P(NCc1ccccc1)(Oc1ccccc1)Oc1ccccc1,303.15,0.03684,ethyl acetate,CCOC(C)=O,10.1021/acs.jced.5b00007
COc1ccc(C(=O)O)c(OC)c1,303.15,0.0312,ethyl acetate,CCOC(C)=O,10.1021/je501045s
CC1(C)COC(=O)[C@@H]1O,303.15,0.446,ethyl acetate,CCOC(C)=O,10.1021/je500996n
C[C@@H]1O[C@@H](O[C@H]2[C@H](Oc3cc(O)c4c(c3)O[C@H](c3ccc(O)cc3)CC4=O)O[C@H](CO)[C@@H](O)[C@@H]2O)[C@H](O)[C@H](O)[C@H]1O,303.15,0.00035035,ethyl acetate,CCOC(C)=O,10.1021/je501004g
O=C1CC(c2ccc(O)cc2)Oc2cc(O)cc(O)c21,303.15,0.017076,ethyl acetate,CCOC(C)=O,10.1021/je501004g
O=C(O)c1ccc(O)c(O)c1,303.15,0.00906,ethyl acetate,CCOC(C)=O,10.1021/je500519y
Nc1cc(Cl)nnc1Cl,303.15,0.0019177,ethyl acetate,CCOC(C)=O,10.1021/je500286x
O=C1N2CN3C(=O)N([N+](=O)[O-])C4C3N(CN3C(=O)N([N+](=O)[O-])C(C23)N1[N+](=O)[O-])C(=O)N4[N+](=O)[O-],303.15,0.0001997,ethyl acetate,CCOC(C)=O,10.1021/je500392g
C=CC1=C(C(=O)O)N2C(=O)[C@@H](NC(=O)/C(=N\OCC(=O)O)c3csc(N)n3)[C@H]2SC1.O.O.O,303.15,0.00159,ethyl acetate,CCOC(C)=O,10.1021/je5000605
CCN1CCN(c2cc3c(cc2F)c(=O)c(C(=O)O)cn3C2CC2)CC1,303.15,0.001053,ethyl acetate,CCOC(C)=O,10.1021/je5002158
O=[N+]([O-])c1ccc(Cl)c(Cl)c1,303.15,0.8662,ethyl acetate,CCOC(C)=O,10.1021/je401044h
O=[N+]([O-])c1cccc(Cl)c1Cl,303.15,0.6818,ethyl acetate,CCOC(C)=O,10.1021/je401044h
CC[C@H]1OC(=O)[C@H](C)[C@@H](O[C@H]2C[C@@](C)(OC)[C@@H](O)[C@H](C)O2)[C@H](C)[C@@H](O[C@@H]2O[C@H](C)C[C@H](N(C)C)[C@H]2O)[C@](C)(O)C[C@@H](C)CN(C)[C@H](C)[C@@H](O)[C@]1(C)O.O,303.15,0.0521,ethyl acetate,CCOC(C)=O,10.1021/je400899e
CCNc1nc(Cl)nc(NC(C)C)n1,303.15,0.01439,ethyl acetate,CCOC(C)=O,10.1021/je400639m
O=P(Oc1ccccc1)(Oc1ccccc1)N1CCN(P(=O)(Oc2ccccc2)Oc2ccccc2)CC1,303.15,0.0012218,ethyl acetate,CCOC(C)=O,10.1021/je400412z
O=[N+]([O-])c1nonc1-c1no[n+]([O-])c1-c1nonc1[N+](=O)[O-],303.15,0.087797,ethyl acetate,CCOC(C)=O,10.1021/je4005992
O=C(O)c1cccc(Cl)c1C(=O)c1ccccc1,303.15,0.01283,ethyl acetate,CCOC(C)=O,10.1021/je400246s
O=C1c2ccccc2C(=O)c2c(Cl)cccc21,303.15,0.007953,ethyl acetate,CCOC(C)=O,10.1021/je400246s
Cc1nc(-c2ccc(OCC(C)C)c(C#N)c2)sc1C(=O)O,303.15,0.0051627,ethyl acetate,CCOC(C)=O,10.1021/je300647k
c1ccc2c(c1)oc1ccccc12,303.15,0.2685,ethyl acetate,CCOC(C)=O,10.1021/je201282d
O=C1c2ccccc2-c2ccccc21,303.15,0.2436,ethyl acetate,CCOC(C)=O,10.1021/je201282d
N[C@@H](Cc1ccc([N+](=O)[O-])cc1[N+](=O)[O-])C(=O)O,303.15,9.1e-09,ethyl acetate,CCOC(C)=O,10.1021/je100352r
CN/C(=C\[N+](=O)[O-])NCCSCc1csc(CN(C)C)n1,303.15,0.00093,ethyl acetate,CCOC(C)=O,10.1021/je1000928
CC[C@H](CC[C@@H](C)[C@H]1CC[C@H]2[C@@H]3CC=C4C[C@@H](O)CC[C@]4(C)[C@H]3CC[C@@]21C)C(C)C,303.15,0.01025,ethyl acetate,CCOC(C)=O,10.1021/je9009909
C[C@H](CS)C(=O)N1CCC[C@H]1C(=O)O,303.15,0.01885,ethyl acetate,CCOC(C)=O,10.1021/je900401z
COC(=O)/C=C/c1ccc(O)cc1,303.15,0.0856,ethyl acetate,CCOC(C)=O,10.1021/je9004382
COC(=O)/C=C/c1ccc(O)c(OC)c1,303.15,0.2172,ethyl acetate,CCOC(C)=O,10.1021/je9004382
COC(=O)/C=C/c1cc(OC)c(O)c(OC)c1,303.15,0.1169,ethyl acetate,CCOC(C)=O,10.1021/je9004382
CC1(C)[C@H](C(=O)O)N2C(=O)[C@@H](NC(=O)Cc3ccccc3)[C@H]2S1=O,303.15,0.0031588,ethyl acetate,CCOC(C)=O,10.1021/je900326e
CCCCC(=O)N(Cc1ccc(-c2ccccc2-c2nn[nH]n2)cc1)[C@H](C(=O)O)C(C)C,303.15,0.0108,ethyl acetate,CCOC(C)=O,10.1021/je900159a
CC1=C(/C=C/C(C)=C/C=C/C(C)=C/C=C/C=C(C)/C=C/C=C(C)/C=C/C2=C(C)C(=O)CCC2(C)C)C(C)(C)CCC1=O,303.15,3.674e-05,ethyl acetate,CCOC(C)=O,10.1021/je800801x
O=C1OC(=O)c2c(Cl)cccc21,303.15,0.1544,ethyl acetate,CCOC(C)=O,10.1021/je800869g
O=C1OC(=O)c2cc(Cl)ccc21,303.15,0.2607,ethyl acetate,CCOC(C)=O,10.1021/je800869g
C[C@@H]1CC[C@H]2[C@@H](C)C(=O)O[C@@H]3O[C@@]4(C)CC[C@@H]1[C@]32OO4,303.15,0.02046851,ethyl acetate,CCOC(C)=O,10.1021/je800515w
CC(=O)OCC(=O)[C@@]12N=C(C)O[C@@H]1C[C@H]1[C@@H]3CCC4=CC(=O)C=C[C@]4(C)[C@H]3[C@@H](O)C[C@@]12C,303.15,0.00399483,ethyl acetate,CCOC(C)=O,10.1021/je800790g
C1CN2CCN1CC2,303.15,0.141,ethyl acetate,CCOC(C)=O,10.1021/je8005375
CCCCc1nc(Cl)c(CO)n1Cc1ccc(-c2ccccc2-c2nnn[n-]2)cc1.[K+],303.15,0.001518,ethyl acetate,CCOC(C)=O,10.1021/je7007236
O=P(O)(c1ccccc1)c1ccccc1,303.15,0.00075,ethyl acetate,CCOC(C)=O,10.1021/je800049b
CC[C@H](CC[C@@H](C)[C@H]1CC[C@H]2[C@@H]3CC=C4C[C@@H](OC(=O)/C=C/c5ccc(O)c(OC)c5)CC[C@]4(C)[C@H]3CC[C@@]21C)C(C)C,303.15,0.0007755,ethyl acetate,CCOC(C)=O,10.1021/je7000396
C1CN2CCN1CC2,303.15,0.00167,ethyl acetate,CCOC(C)=O,10.1021/je700186v
O=C1OC(=O)C2C3C=CC(O3)C12,303.15,0.030934,ethyl acetate,CCOC(C)=O,10.1021/acs.jced.0c00569
CC1=NN(c2ccccc2)C(=O)C1,303.15,0.03226,ethyl acetate,CCOC(C)=O,10.1021/acs.jced.9b00881
CC(C(=O)O)c1ccc2c(c1)CC(=O)c1ccccc1S2,303.15,0.01757,ethyl acetate,CCOC(C)=O,10.1021/acs.jced.9b01180
CC(=O)Oc1ccccc1C(=O)O,303.15,0.047054,ethyl acetate,CCOC(C)=O,10.1021/acs.jced.9b01057
CC(=O)Oc1ccc(C(c2ccc(OC(C)=O)cc2)c2ccccn2)cc1,303.15,0.001979,ethyl acetate,CCOC(C)=O,10.1021/acs.jced.9b00728
Nc1cccc2c1CN(C1CCC(=O)NC1=O)C2=O,303.15,0.000168,ethyl acetate,CCOC(C)=O,10.1021/acs.jced.9b00331
N#CC(c1ccc(Cl)cc1)c1c(Cl)cc(-n2ncc(=O)[nH]c2=O)cc1Cl,303.15,0.01112,ethyl acetate,CCOC(C)=O,10.1021/acs.jced.9b00353
N#CCc1ccc([N+](=O)[O-])cc1,303.15,0.1698,ethyl acetate,CCOC(C)=O,10.1021/acs.jced.9b00005
FC(F)(F)c1cccnc1Cl,303.15,0.8237,ethyl acetate,CCOC(C)=O,10.1021/acs.jced.8b00989
CCCN(CCC)S(=O)(=O)c1ccc(C(=O)O)cc1,303.15,0.008209,ethyl acetate,CCOC(C)=O,10.1021/acs.jced.8b00863
N#Cc1ccc([N+](=O)[O-])cc1,303.15,0.0842,ethyl acetate,CCOC(C)=O,10.1021/acs.jced.8b00555
O=[N+]([O-])N1C2C3N([N+](=O)[O-])C1C1N([N+](=O)[O-])C(C(N1[N+](=O)[O-])N3[N+](=O)[O-])N2[N+](=O)[O-],303.15,0.09812,ethyl acetate,CCOC(C)=O,10.1021/acs.jced.8b00353
N#Cc1cccc([N+](=O)[O-])c1,303.15,0.1086,ethyl acetate,CCOC(C)=O,10.1021/acs.jced.8b00230
O=S(=O)(c1ccc(O)cc1)c1ccc(O)cc1,303.15,0.0174,ethyl acetate,CCOC(C)=O,10.1021/acs.jced.6b00421
S=C(Nc1ccccc1)Nc1ccccc1,303.15,0.01377,ethyl acetate,CCOC(C)=O,10.1016/j.jct.2021.106605
O=C(O)COc1ccc(Cl)cc1Cl,303.15,0.1005,ethyl acetate,CCOC(C)=O,10.1016/j.jct.2021.106589
CN1CCN(C2=Nc3cc(Cl)ccc3Nc3ccccc32)CC1,303.15,0.01605,ethyl acetate,CCOC(C)=O,10.1016/j.jct.2021.106398
CN1CCN(C2=Nc3cc(Cl)ccc3Nc3ccccc32)CC1,303.15,0.01908,ethyl acetate,CCOC(C)=O,10.1016/j.jct.2021.106451
CN(C)c1ccc(O)c2c1C[C@H]1C[C@H]3[C@H](N(C)C)C(O)=C(C(N)=O)C(=O)[C@@]3(O)C(O)=C1C2=O.Cl,303.15,1.92e-05,ethyl acetate,CCOC(C)=O,10.1016/j.jct.2021.106399
CCCCN(CCCC)CC(O)c1cc(Cl)cc2c1-c1ccc(Cl)cc1/C2=C/c1ccc(Cl)cc1,303.15,0.006903,ethyl acetate,CCOC(C)=O,10.1016/j.jct.2020.106323
COCCOC(=O)C1=C(C)NC(C)=C(C(=O)OC(C)C)C1c1cccc([N+](=O)[O-])c1,303.15,0.002485,ethyl acetate,CCOC(C)=O,10.1016/j.jct.2020.106259
O=c1cc(CO)occ1O,303.15,0.002419,ethyl acetate,CCOC(C)=O,10.1016/j.jct.2020.106280
O=C(O)CCc1nc(-c2ccccc2)c(-c2ccccc2)o1,303.15,0.00925,ethyl acetate,CCOC(C)=O,10.1016/j.jct.2020.106239
N#Cc1ccc2c(c1)OCO2,303.15,0.187,ethyl acetate,CCOC(C)=O,10.1016/j.jct.2020.106191
Cn1c(=O)c2c(ncn2CC2OCCO2)n(C)c1=O,303.15,0.02723,ethyl acetate,CCOC(C)=O,10.1016/j.jct.2020.106126
O=c1[nH]c(=O)n(C2CCCO2)cc1F,303.15,0.013675,ethyl acetate,CCOC(C)=O,10.1016/j.jct.2020.106090
COc1ccccc1N1CCN(CC(O)COc2cccc3ccccc23)CC1,303.15,0.009983,ethyl acetate,CCOC(C)=O,10.1016/j.jct.2019.105969
Cc1ccc(NC(=O)c2ccc(CN3CCN(C)CC3)cc2)cc1Nc1nccc(-c2cccnc2)n1,303.15,0.000283,ethyl acetate,CCOC(C)=O,10.1016/j.jct.2019.106031
COC(=O)Nc1nc2ccc(Sc3ccccc3)cc2[nH]1,303.15,0.0006009,ethyl acetate,CCOC(C)=O,10.1016/j.jct.2019.07.018
Cc1c([N+](=O)[O-])c(C)c([N+](=O)[O-])c(C(C)(C)C)c1[N+](=O)[O-],303.15,0.2067,ethyl acetate,CCOC(C)=O,10.1016/j.jct.2019.03.029
Cc1c(C(N)=O)cc([N+](=O)[O-])cc1[N+](=O)[O-],303.15,0.009059,ethyl acetate,CCOC(C)=O,10.1016/j.jct.2019.01.013
O=C(Nc1ccccc1-c1ccc(Cl)cc1)c1cccnc1Cl,303.15,0.01166,ethyl acetate,CCOC(C)=O,10.1016/j.jct.2017.04.017
c1ccc(-c2nnn[nH]2)cc1,303.15,0.00838,ethyl acetate,CCOC(C)=O,10.1016/j.jct.2017.04.019
S=c1[nH]c2ccccc2s1,303.15,0.04337,ethyl acetate,CCOC(C)=O,10.1016/j.jct.2017.05.013
Cc1cc(C)[nH]n1,303.15,0.1437,ethyl acetate,CCOC(C)=O,10.1016/j.jct.2017.02.011
Cc1ccc(N)c([N+](=O)[O-])c1,303.15,0.1443,ethyl acetate,CCOC(C)=O,10.1016/j.jct.2017.02.008
Nc1ccc(N)c([N+](=O)[O-])c1,303.15,0.04022,ethyl acetate,CCOC(C)=O,10.1016/j.jct.2017.01.006
CC(C)c1ncc[nH]1,303.15,0.09391,ethyl acetate,CCOC(C)=O,10.1016/j.jct.2016.12.028
COc1cc(CO)ccc1O,303.15,0.0296,ethyl acetate,CCOC(C)=O,10.1016/j.jct.2016.11.030
Clc1ccc2c(c1)Nc1ccccc1S2,303.15,0.03571,ethyl acetate,CCOC(C)=O,10.1016/j.jct.2016.11.029
Nc1ccc([N+](=O)[O-])cc1N,303.15,0.006646,ethyl acetate,CCOC(C)=O,10.1016/j.jct.2016.11.014
Nc1cc(Cl)ccc1C(=O)O,303.15,0.02783,ethyl acetate,CCOC(C)=O,10.1016/j.jct.2016.11.019
CC(C)(C)C(O)(CCc1ccc(Cl)cc1)Cn1cncn1,303.15,0.06676,ethyl acetate,CCOC(C)=O,10.1016/j.jct.2016.11.032
Cc1cc([N+](=O)[O-])ccc1N,303.15,0.1251,ethyl acetate,CCOC(C)=O,10.1016/j.jct.2016.10.037
O=Cc1cccc([N+](=O)[O-])c1,303.15,0.5106,ethyl acetate,CCOC(C)=O,10.1016/j.jct.2016.10.040
Cn1cnc([N+](=O)[O-])c1Cl,303.15,0.01617,ethyl acetate,CCOC(C)=O,10.1016/j.jct.2016.10.006
CC(C)C(=O)OCC(=O)[C@@]12O[C@H](C3CCCCC3)O[C@@H]1C[C@H]1[C@@H]3CCC4=CC(=O)C=C[C@]4(C)[C@H]3[C@@H](O)C[C@@]12C,303.15,0.109,ethyl acetate,CCOC(C)=O,10.1016/j.jct.2016.10.014
COc1cc(Cl)nc(N)n1,303.15,0.01878,ethyl acetate,CCOC(C)=O,10.1016/j.jct.2016.10.020
O=Cc1ccc([N+](=O)[O-])cc1,303.15,0.1056,ethyl acetate,CCOC(C)=O,10.1016/j.jct.2016.09.012
Nc1nnc[nH]1,303.15,0.003445,ethyl acetate,CCOC(C)=O,10.1016/j.jct.2016.09.033
C=CC(=O)N1CCC[C@@H](n2nc(-c3ccc(Oc4ccccc4)cc3)c3c(N)ncnc32)C1,303.15,0.006179,ethyl acetate,CCOC(C)=O,10.1016/j.jct.2016.08.034
CC1=NN(c2ccc(C)cc2)C(=O)C1,303.15,0.04098,ethyl acetate,CCOC(C)=O,10.1016/j.jct.2016.08.007
O=[N+]([O-])c1ccc(O)c2ncccc12,303.15,0.007864,ethyl acetate,CCOC(C)=O,10.1016/j.jct.2016.04.018
COc1ccc2nc(S(=O)Cc3ncc(C)c(OC)c3C)[nH]c2c1,303.15,0.002199,ethyl acetate,CCOC(C)=O,10.1016/j.jct.2015.11.005
O=C1NC(=O)c2ccccc21,303.15,0.008792,ethyl acetate,CCOC(C)=O,10.1016/j.jct.2015.10.024
Cc1cccc([N+](=O)[O-])c1N,303.15,0.1962,ethyl acetate,CCOC(C)=O,10.1016/j.jct.2016.05.027
COc1c(O)cc2c(c1O)[C@@H]1O[C@H](CO)[C@@H](O)[C@H](O)[C@H]1OC2=O,303.15,0.000311,ethyl acetate,CCOC(C)=O,10.1016/j.jct.2016.05.003
O=S(=O)(c1ccc(O)cc1)c1ccccc1O,303.15,0.05617,ethyl acetate,CCOC(C)=O,10.1016/j.jct.2016.07.001
Cc1cc(C(=O)O)ccc1[N+](=O)[O-],303.15,0.01527,ethyl acetate,CCOC(C)=O,10.1016/j.jct.2016.07.023
CN(C)CCOC(c1ccccc1)c1ccccc1.Cl,303.15,0.000431,ethyl acetate,CCOC(C)=O,10.1016/j.jct.2015.09.032
CC(=O)O[C@H]1CC[C@@]2(C)C(=CC[C@H]3[C@@H]4CCC(=O)[C@@]4(C)CC[C@@H]32)C1,303.15,0.04941,ethyl acetate,CCOC(C)=O,10.1016/j.jct.2016.01.023
N=C(Nc1ccccc1)Nc1ccccc1,303.15,0.06414,ethyl acetate,CCOC(C)=O,10.1016/j.jct.2016.03.011
C/C=C/C=C/C(=O)O,303.15,0.05421,ethyl acetate,CCOC(C)=O,10.1016/j.jct.2015.02.004
O=C(O)CCCCCCCCCCCC(=O)O,303.15,0.00254,ethyl acetate,CCOC(C)=O,10.1016/j.jct.2015.05.026
O=[N+]([O-])c1cccc2cccc([N+](=O)[O-])c12,303.15,0.01016,ethyl acetate,CCOC(C)=O,10.1016/j.jct.2015.07.010
CC(C)(C)[C@H](O)[C@H](Cc1ccc(Cl)cc1)n1cncn1,303.15,0.02903,ethyl acetate,CCOC(C)=O,10.1016/j.jct.2016.09.038
CCOC(=O)Cc1c(C(=O)OCC)sc(N)c1C#N,303.15,0.04268,ethyl acetate,CCOC(C)=O,10.1016/j.jct.2015.11.025
Nc1ccc(N2CCOCC2=O)cc1,303.15,0.002569,ethyl acetate,CCOC(C)=O,10.1016/j.jct.2016.01.022
O=C1c2cccc(Cl)c2C(=O)N1c1ccccc1,303.15,0.003802,ethyl acetate,CCOC(C)=O,10.1016/j.jct.2016.01.003
C[C@H]1[C@H]2[C@H](C[C@H]3[C@@H]4CC=C5C[C@@H](O)CC[C@]5(C)[C@H]4CC[C@@]32C)O[C@]12CC[C@@H](C)CO2,303.15,0.0027582,ethyl acetate,CCOC(C)=O,10.1016/j.jct.2011.11.009
O=C(/C=C/C=C/c1ccc2c(c1)OCO2)N1CCCCC1,303.15,0.02325,ethyl acetate,CCOC(C)=O,10.1016/j.jct.2021.106555
Clc1ncnc2[nH]ccc12,303.15,0.02458,ethyl acetate,CCOC(C)=O,10.1016/j.jct.2021.106493
Cn1cc([N+](=O)[O-])cn1,303.15,0.020758,ethyl acetate,CCOC(C)=O,10.1016/j.fluid.2018.05.023
CC1(C)CCC2=C(O1)c1ccccc1C(=O)C2=O,303.15,0.00936,ethyl acetate,CCOC(C)=O,10.1016/j.fluid.2018.05.005
Cc1cc(C)c(C(=O)P(=O)(c2ccccc2)c2ccccc2)c(C)c1,303.15,0.1603,ethyl acetate,CCOC(C)=O,10.1016/j.fluid.2018.01.015
O=C1NC(=O)C2C3C=CC(C3)C12,303.15,0.017065,ethyl acetate,CCOC(C)=O,10.1016/j.fluid.2019.112301
CCOc1ccccc1C(N)=O,303.15,0.00835,ethyl acetate,CCOC(C)=O,10.1016/j.fluid.2016.08.019
COC(=O)[C@H](N)c1ccccc1.Cl,303.15,0.00015,ethyl acetate,CCOC(C)=O,10.1016/j.fluid.2016.02.020
Cc1cc(C)cc(OCC2CNC(=O)O2)c1,303.15,0.0136528,ethyl acetate,CCOC(C)=O,10.1016/j.fluid.2015.09.013
O=C(O)CN(CC(=O)O)CP(=O)(O)O,303.15,0.0007908,ethyl acetate,CCOC(C)=O,10.1016/j.fluid.2014.08.036
Cc1nc2n(c(=O)c1CCN1CCC(c3noc4cc(F)ccc34)CC1)CCCC2,303.15,0.002628,ethyl acetate,CCOC(C)=O,10.1016/j.fluid.2014.04.028
O=C1C=CC(=O)O1,303.15,0.03985,ethyl acetate,CCOC(C)=O,10.1016/j.fluid.2014.01.008
C/C=C/C(=O)O,303.15,0.4595,ethyl acetate,CCOC(C)=O,10.1016/j.fluid.2013.06.038
COC(=O)C1CC(=O)C(C(=O)OC)CC1=O,303.15,0.00914,ethyl acetate,CCOC(C)=O,10.1016/j.fluid.2013.06.037
COC(=O)[C@@H](N)CS.Cl,303.15,0.00013,dichloromethane,ClCCl,10.1021/acs.jced.0c00795
O=C(Nc1ccccc1)c1ccccc1,303.15,0.012522,dichloromethane,ClCCl,10.1021/acs.jced.0c00167
N=C(N)NCCC[C@H](N)C(=O)O.O=C1CC[C@@H](C(=O)O)N1,303.15,0.000282,dichloromethane,ClCCl,10.1021/acs.jced.0c01074
CSCCC(NC(C)=O)C(=O)O,303.15,0.00052,dichloromethane,ClCCl,10.1021/acs.jced.1c00064
O=C(O)[C@@H]1C[C@@H](O)CN1,303.15,0.000511,dichloromethane,ClCCl,10.1021/acs.jced.0c00794
CN1COCN(Cc2cnc(Cl)s2)/C1=N/[N+](=O)[O-],303.15,0.02488,dichloromethane,ClCCl,10.1021/acs.jced.0c00752
O=C(O)[C@@H]1CSCN1,303.15,0.000292,dichloromethane,ClCCl,10.1021/acs.jced.0c00996
CC1=NN(c2ccccc2)C(=O)C1,303.15,0.078838,dichloromethane,ClCCl,10.1021/acs.jced.0c00290
O=C(O)CNCc1ccccc1,303.15,5.7e-05,dichloromethane,ClCCl,10.1021/acs.jced.1c00050
CCOC(=O)[C@@H]1CSCN1.Cl,303.15,0.018662,dichloromethane,ClCCl,10.1021/acs.jced.1c00079
CC(C)(C)OC(=O)N1CCC[C@H]1C(=O)O,303.15,0.125493,dichloromethane,ClCCl,10.1021/acs.jced.1c00201
CNC(=O)c1cc(Oc2ccc(N)cc2)ccn1,303.15,0.04132,dichloromethane,ClCCl,10.1021/acs.jced.1c00232
O=C(N[C@H](C(=O)O)c1ccccc1)OCc1ccccc1,303.15,0.014892,dichloromethane,ClCCl,10.1021/acs.jced.1c00240
OC[C@H]1O[C@@H](Oc2ccc(O)cc2)[C@H](O)[C@@H](O)[C@@H]1O,303.15,1.6e-05,dichloromethane,ClCCl,10.1021/acs.jced.0c00353
CCOC(=O)[C@@H](N)CCc1ccccc1.Cl,303.15,0.04889,dichloromethane,ClCCl,10.1021/acs.jced.1c00485
CC(=O)N1CCC[C@H]1C(=O)O,303.15,0.09744,dichloromethane,ClCCl,10.1021/acs.jced.1c00032
NC1CCSC1=O,303.15,0.000356,dichloromethane,ClCCl,10.1021/acs.jced.0c01089
O=[N+]([O-])N(CCO)CCO.O=[N+]([O-])O.O=[N+]([O-])O,303.15,0.36731,dichloromethane,ClCCl,10.1021/acs.jced.0c00211
O=C[C@H](O)[C@H](O)[C@H](O)CO,303.15,0.0005293,dichloromethane,ClCCl,10.1021/acs.jced.0c00009
c1cc(-n2c3ccccc3c3ccccc32)cc(-n2c3ccccc3c3ccccc32)c1,303.15,0.139,dichloromethane,ClCCl,10.1021/acs.jced.9b00432
NS(=O)(=O)c1ccccc1,303.15,0.004953,dichloromethane,ClCCl,10.1021/acs.jced.9b00360
N#CCC(N)=O,303.15,0.0009313,dichloromethane,ClCCl,10.1021/acs.jced.8b01205
O=P(NCc1ccccc1)(Oc1ccccc1)Oc1ccccc1,303.15,0.12551,dichloromethane,ClCCl,10.1021/acs.jced.5b00007
Nc1cc(Cl)nnc1Cl,303.15,0.0003868,dichloromethane,ClCCl,10.1021/je500286x
O=P(Oc1ccccc1)(Oc1ccccc1)N1CCN(P(=O)(Oc2ccccc2)Oc2ccccc2)CC1,303.15,0.010561,dichloromethane,ClCCl,10.1021/je400412z
O=[N+]([O-])c1nonc1-c1no[n+]([O-])c1-c1nonc1[N+](=O)[O-],303.15,0.00835691,dichloromethane,ClCCl,10.1021/je4005992
c1ccc(OP2(Oc3ccccc3)=NP(Oc3ccccc3)(Oc3ccccc3)=NP(Oc3ccccc3)(Oc3ccccc3)=N2)cc1,303.15,0.1583,dichloromethane,ClCCl,10.1021/je1009812
CC1COc2c(N3CCN(C)CC3)c(F)cc3c(=O)c(C(=O)O)cn1c23,303.15,0.004637,dichloromethane,ClCCl,10.1021/je900540d
CCCCC(=O)N(Cc1ccc(-c2ccccc2-c2nn[nH]n2)cc1)[C@H](C(=O)O)C(C)C,303.15,0.00524,dichloromethane,ClCCl,10.1021/je8007815
CCN1CCN(c2cc3c(cc2F)c(=O)cc(C(=O)[O-])n3C2CC2)CC1.[Na+],303.15,0.00844,dichloromethane,ClCCl,10.1021/je8005826
CO[C@H]1/C=C/O[C@@]2(C)Oc3c(C)c(O)c4c(O)c(c(/C=N/N5CCN(C6CCCC6)CC5)c(O)c4c3C2=O)NC(=O)/C(C)=C\C=C\[C@H](C)[C@H](O)[C@@H](C)[C@@H](O)[C@@H](C)[C@H](OC(C)=O)[C@@H]1C,303.15,0.0209,dichloromethane,ClCCl,10.1021/je7007457
O=P(Oc1ccccc1)(Oc1ccccc1)N1CCN(P(=O)(Oc2ccccc2)Oc2ccccc2)CC1,303.15,0.01025,dichloromethane,ClCCl,10.1021/je500678z
CC(C)Oc1ccc2c(=O)c(-c3ccccc3)coc2c1,303.15,0.107559,dichloromethane,ClCCl,10.1016/j.jct.2020.106231
CC1(C)CO[P+]([O-])(Oc2c(Br)cc(Br)cc2Br)OC1,303.15,0.06527,dichloromethane,ClCCl,10.1016/j.fluid.2013.09.023
COC(=O)[C@@H](N)CS.Cl,303.15,0.00043,acetonitrile,CC#N,10.1021/acs.jced.0c00795
CC1(C)NC(=O)NC1=O,303.15,0.02272,acetonitrile,CC#N,10.1021/acs.jced.9b01020
NS(=O)(=O)Cc1noc2ccccc12,303.15,0.01491,acetonitrile,CC#N,10.1021/acs.jced.0c00249
CC(=O)Oc1ccccc1C(=O)Nc1ncc([N+](=O)[O-])s1,303.15,0.001576,acetonitrile,CC#N,10.1021/acs.jced.0c00254
O=Cc1cc(Br)c(O)c(Br)c1,303.15,0.004517,acetonitrile,CC#N,10.1021/acs.jced.0c00376
CC(=O)Nc1ccc(OC(=O)c2ccccc2OC(C)=O)cc1,303.15,0.001994,acetonitrile,CC#N,10.1021/acs.jced.0c00301
CCCSc1nc(N[C@@H]2C[C@H]2c2ccc(F)c(F)c2)c2nnn([C@@H]3C[C@H](OCCO)[C@@H](O)[C@H]3O)c2n1,303.15,0.003088,acetonitrile,CC#N,10.1021/acs.jced.0c00127
O=C(Nc1ccccc1)c1ccccc1,303.15,0.007424,acetonitrile,CC#N,10.1021/acs.jced.0c00167
O=C1CC[C@@H](C(=O)N2CSC[C@H]2C(=O)O)N1,303.15,0.000855,acetonitrile,CC#N,10.1021/acs.jced.0c00616
O=C(O)COc1ccc(Cl)cc1,303.15,0.0159,acetonitrile,CC#N,10.1021/acs.jced.1c00153
Cc1cc(Cl)cc(C(=O)O)c1N,303.15,0.001976,acetonitrile,CC#N,10.1021/acs.jced.1c00047
Cc1c(N)cccc1C(=O)O,303.15,0.0009856,acetonitrile,CC#N,10.1021/acs.jced.1c00109
N=C(N)NCCC[C@H](N)C(=O)O.O=C1CC[C@@H](C(=O)O)N1,303.15,1.8e-05,acetonitrile,CC#N,10.1021/acs.jced.0c01074
c1ccc(-n2c(-c3cc(-c4nc5ccccc5n4-c4ccccc4)cc(-c4nc5ccccc5n4-c4ccccc4)c3)nc3ccccc32)cc1,303.15,0.000149,acetonitrile,CC#N,10.1021/acs.jced.1c00163
CC(=O)Nc1ccccc1[N+](=O)[O-],303.15,0.03869,acetonitrile,CC#N,10.1021/acs.jced.1c00037
CSCCC(NC(C)=O)C(=O)O,303.15,0.00877,acetonitrile,CC#N,10.1021/acs.jced.1c00064
Nc1cccc(S(=O)(=O)c2cccc(N)c2)c1,303.15,0.01266,acetonitrile,CC#N,10.1021/acs.jced.1c00062
O=C(O)[C@@H]1C[C@@H](O)CN1,303.15,0.000146,acetonitrile,CC#N,10.1021/acs.jced.0c00794
O=Cc1cc(C=O)cc(C=O)c1,303.15,0.010004,acetonitrile,CC#N,10.1021/acs.jced.0c00776
O=C(O)[C@@H]1CSCN1,303.15,4.8e-05,acetonitrile,CC#N,10.1021/acs.jced.0c00996
O=C(Nc1ccccc1)c1ccccc1O,303.15,0.025843,acetonitrile,CC#N,10.1021/acs.jced.0c01078
O=C(O)c1cccc(O)c1O,303.15,0.01471,acetonitrile,CC#N,10.1021/acs.jced.0c01032
NC(=O)[C@@H]1CCCN1,303.15,0.10577,acetonitrile,CC#N,10.1021/acs.jced.0c00961
CC(=O)O[C@]1(C(C)=O)CC[C@H]2[C@@H]3C=C(Cl)C4=CC(=O)[C@@H]5C[C@@H]5[C@]4(C)[C@H]3CC[C@@]21C,303.15,0.00023902,acetonitrile,CC#N,10.1021/acs.jced.0c00803
c1ccc2[nH]c(-c3cscn3)nc2c1,303.15,0.0002086,acetonitrile,CC#N,10.1021/acs.jced.0c00724
Nc1ccc(Cc2ccc(N)c(Cl)c2)cc1Cl,303.15,0.03226,acetonitrile,CC#N,10.1021/acs.jced.0c00655
c1cnc2[nH]ccc2c1,303.15,0.1592,acetonitrile,CC#N,10.1021/acs.jced.0c00128
Nc1cccc(Cl)c1C(=O)O,303.15,0.02585,acetonitrile,CC#N,10.1021/acs.jced.0c00320
CC1=NN(c2ccccc2)C(=O)C1,303.15,0.019021,acetonitrile,CC#N,10.1021/acs.jced.0c00290
Cl.N=C(N=C(N)N)N1CCOCC1,303.15,0.000117,acetonitrile,CC#N,10.1021/acs.jced.0c00015
Nc1nc(=O)[nH]cc1F,303.15,2.23e-05,acetonitrile,CC#N,10.1021/acs.jced.1c00206
O=C(O)CNCc1ccccc1,303.15,1.7e-05,acetonitrile,CC#N,10.1021/acs.jced.1c00050
O=C(O)c1cccc([N+](=O)[O-])c1O,303.15,0.07257,acetonitrile,CC#N,10.1021/acs.jced.1c00259
Cl.N[C@@H](Cc1ccccc1)C(=O)OCc1ccccc1,303.15,0.000365,acetonitrile,CC#N,10.1021/acs.jced.1c00239