SMILES,"T,K",Solubility,Solvent,SMILES_Solvent,Source
O=C1NC(=O)c2ccccc21,303.15,0.01492,acetone,CC(C)=O,10.1016/j.jct.2015.10.024
Cc1cccc([N+](=O)[O-])c1N,303.15,0.2334,acetone,CC(C)=O,10.1016/j.jct.2016.05.027
O=S(=O)(c1ccc(O)cc1)c1ccccc1O,303.15,0.133,acetone,CC(C)=O,10.1016/j.jct.2016.07.001
Cc1cc(C(=O)O)ccc1[N+](=O)[O-],303.15,0.02855,acetone,CC(C)=O,10.1016/j.jct.2016.07.023
CN(C)CCOC(c1ccccc1)c1ccccc1.Cl,303.15,0.00352,acetone,CC(C)=O,10.1016/j.jct.2015.09.032
CC(=O)O[C@H]1CC[C@@]2(C)C(=CC[C@H]3[C@@H]4CCC(=O)[C@@]4(C)CC[C@@H]32)C1,303.15,0.03125,acetone,CC(C)=O,10.1016/j.jct.2016.01.023
N=C(Nc1ccccc1)Nc1ccccc1,303.15,0.1058,acetone,CC(C)=O,10.1016/j.jct.2016.03.011
C/C=C/C=C/C(=O)O,303.15,0.08711,acetone,CC(C)=O,10.1016/j.jct.2015.02.004
O=C(O)CCCCCCCCCCCC(=O)O,303.15,0.00633,acetone,CC(C)=O,10.1016/j.jct.2015.05.026
O=[N+]([O-])c1cccc2cccc([N+](=O)[O-])c12,303.15,0.02609,acetone,CC(C)=O,10.1016/j.jct.2015.07.010
CC(C)(C)[C@H](O)[C@H](Cc1ccc(Cl)cc1)n1cncn1,303.15,0.0269,acetone,CC(C)=O,10.1016/j.jct.2016.09.038
CCOC(=O)Cc1c(C(=O)OCC)sc(N)c1C#N,303.15,0.09023,acetone,CC(C)=O,10.1016/j.jct.2015.11.025
O=C1c2cccc(Cl)c2C(=O)N1c1ccccc1,303.15,0.005046,acetone,CC(C)=O,10.1016/j.jct.2016.01.003
O=P([O-])([O-])OC[C@H]1O[C@@H](n2cnc3c(O)ncnc32)[C@H](O)[C@@H]1O.[Na+].[Na+],303.15,0.0001764,acetone,CC(C)=O,10.1016/j.jct.2014.04.023
CN(C)[C@@H]1C(O)=C(C(N)=O)C(=O)[C@@]2(O)C(O)=C3C(=O)c4c(O)cccc4[C@@](C)(O)[C@H]3C[C@@H]12.Cl,303.15,1.57e-05,acetone,CC(C)=O,10.1016/j.jct.2012.08.007
O=C(/C=C/C=C/c1ccc2c(c1)OCO2)N1CCCCC1,303.15,0.01127,acetone,CC(C)=O,10.1016/j.jct.2021.106555
Clc1ncnc2[nH]ccc12,303.15,0.02653,acetone,CC(C)=O,10.1016/j.jct.2021.106493
Nc1nc(N)nc(NC2CC2)n1,303.15,0.0008051,acetone,CC(C)=O,10.1016/j.fluid.2018.07.024
Cn1cc([N+](=O)[O-])cn1,303.15,0.048532,acetone,CC(C)=O,10.1016/j.fluid.2018.05.023
CC1(C)CCC2=C(O1)c1ccccc1C(=O)C2=O,303.15,0.0216,acetone,CC(C)=O,10.1016/j.fluid.2018.05.005
Cc1cc(C)c(C(=O)P(=O)(c2ccccc2)c2ccccc2)c(C)c1,303.15,0.1968,acetone,CC(C)=O,10.1016/j.fluid.2018.01.015
O=C1NC(=O)C2C3C=CC(C3)C12,303.15,0.025482,acetone,CC(C)=O,10.1016/j.fluid.2019.112301
COC(=O)[C@H](N)c1ccccc1.Cl,303.15,7.8e-05,acetone,CC(C)=O,10.1016/j.fluid.2016.02.020
CNC[C@H](O)[C@@H](O)[C@H](O)[C@H](O)CO.Cc1c(Nc2ncccc2C(=O)O)cccc1C(F)(F)F,303.15,0.002154,acetone,CC(C)=O,10.1016/j.fluid.2015.06.026
N[C@@H](C(=O)N[C@@H]1C(=O)N2C(C(=O)O)=C(Cl)CS[C@H]12)c1ccccc1.O,303.15,6.84e-05,acetone,CC(C)=O,10.1016/j.fluid.2015.01.001
N=C(N)N.O=[N+]([O-])O,303.15,0.0052,acetone,CC(C)=O,10.1016/j.fluid.2014.12.037
Cc1nnc(SCC2=C(C(=O)O)N3C(=O)[C@@H](NC(=O)Cn4cnnn4)[C@H]3SC2)s1,303.15,0.00019559,acetone,CC(C)=O,10.1016/j.fluid.2014.12.020
O=C(O)CN(CC(=O)O)CP(=O)(O)O,303.15,0.0002729,acetone,CC(C)=O,10.1016/j.fluid.2014.08.036
Cc1nc2n(c(=O)c1CCN1CCC(c3noc4cc(F)ccc34)CC1)CCCC2,303.15,0.00219,acetone,CC(C)=O,10.1016/j.fluid.2014.04.028
O=C1C=CC(=O)O1,303.15,0.04528,acetone,CC(C)=O,10.1016/j.fluid.2014.01.008
CCN1CCN(C(=O)N[C@@H](C(=O)N[C@@H]2C(=O)N3C(C(=O)O)=C(CSc4nnnn4C)CS[C@H]23)c2ccc(O)cc2)C(=O)C1=O,303.15,0.005135,acetone,CC(C)=O,10.1016/j.fluid.2013.11.005
CC1(C)CO[P+]([O-])(Oc2c(Br)cc(Br)cc2Br)OC1,303.15,0.01709,acetone,CC(C)=O,10.1016/j.fluid.2013.09.023
COC(=O)C1CC(=O)C(C(=O)OC)CC1=O,303.15,0.00548,acetone,CC(C)=O,10.1016/j.fluid.2013.06.037
COC(=O)[C@@H](N)CS.Cl,303.15,0.00018,ethyl acetate,CCOC(C)=O,10.1021/acs.jced.0c00795
CC1(C)NC(=O)NC1=O,303.15,0.01912,ethyl acetate,CCOC(C)=O,10.1021/acs.jced.9b01020
NS(=O)(=O)Cc1noc2ccccc12,303.15,0.009801,ethyl acetate,CCOC(C)=O,10.1021/acs.jced.0c00249
CC(=O)Oc1ccccc1C(=O)Nc1ncc([N+](=O)[O-])s1,303.15,0.003298,ethyl acetate,CCOC(C)=O,10.1021/acs.jced.0c00254
O=Cc1cc(Br)c(O)c(Br)c1,303.15,0.01139,ethyl acetate,CCOC(C)=O,10.1021/acs.jced.0c00376
CC(=O)Nc1ccc(OC(=O)c2ccccc2OC(C)=O)cc1,303.15,0.001189,ethyl acetate,CCOC(C)=O,10.1021/acs.jced.0c00301
CCCSc1nc(N[C@@H]2C[C@H]2c2ccc(F)c(F)c2)c2nnn([C@@H]3C[C@H](OCCO)[C@@H](O)[C@H]3O)c2n1,303.15,0.0118,ethyl acetate,CCOC(C)=O,10.1021/acs.jced.0c00127
O=C(Nc1ccccc1)c1ccccc1,303.15,0.015474,ethyl acetate,CCOC(C)=O,10.1021/acs.jced.0c00167
Nc1ccc(S(N)(=O)=O)cc1,303.15,2.6e-05,ethyl acetate,CCOC(C)=O,10.1021/acs.jced.9b00411
O=[N+]([O-])N=C1NCCN1Cc1ccc(Cl)nc1,303.15,0.0034,ethyl acetate,CCOC(C)=O,10.1021/acs.jced.0c00558
CCOC(=O)[C@@H](C)Oc1ccc(Oc2cnc3cc(Cl)ccc3n2)cc1,303.15,0.02641,ethyl acetate,CCOC(C)=O,10.1021/acs.jced.1c00092
O=C(O)COc1ccc(Cl)cc1,303.15,0.04679,ethyl acetate,CCOC(C)=O,10.1021/acs.jced.1c00153
Cc1cc(Cl)cc(C(=O)O)c1N,303.15,0.009328,ethyl acetate,CCOC(C)=O,10.1021/acs.jced.1c00047
Cc1c(N)cccc1C(=O)O,303.15,0.00173,ethyl acetate,CCOC(C)=O,10.1021/acs.jced.1c00109
N=C(N)NCCC[C@H](N)C(=O)O.O=C1CC[C@@H](C(=O)O)N1,303.15,7.4e-05,ethyl acetate,CCOC(C)=O,10.1021/acs.jced.0c01074
c1ccc(-n2c(-c3cc(-c4nc5ccccc5n4-c4ccccc4)cc(-c4nc5ccccc5n4-c4ccccc4)c3)nc3ccccc32)cc1,303.15,0.000921,ethyl acetate,CCOC(C)=O,10.1021/acs.jced.1c00163
CC(=O)Nc1ccccc1[N+](=O)[O-],303.15,0.112,ethyl acetate,CCOC(C)=O,10.1021/acs.jced.1c00037
CSCCC(NC(C)=O)C(=O)O,303.15,0.00641,ethyl acetate,CCOC(C)=O,10.1021/acs.jced.1c00064
O=C(O)c1ccc(CO)cc1,303.15,0.00919,ethyl acetate,CCOC(C)=O,10.1021/acs.jced.1c00035
Nc1cccc(S(=O)(=O)c2cccc(N)c2)c1,303.15,0.02425,ethyl acetate,CCOC(C)=O,10.1021/acs.jced.1c00062
O=C(O)[C@@H]1C[C@@H](O)CN1,303.15,0.001316,ethyl acetate,CCOC(C)=O,10.1021/acs.jced.0c00794
CN1COCN(Cc2cnc(Cl)s2)/C1=N/[N+](=O)[O-],303.15,0.002566,ethyl acetate,CCOC(C)=O,10.1021/acs.jced.0c00752
OCC(O)COc1ccc(Cl)cc1,303.15,0.08404,ethyl acetate,CCOC(C)=O,10.1021/acs.jced.0c00900
COc1cc2nc(Cl)nc(N)c2cc1OC,303.15,0.0007246,ethyl acetate,CCOC(C)=O,10.1021/acs.jced.0c00506
O=C(O)[C@@H]1CSCN1,303.15,0.000158,ethyl acetate,CCOC(C)=O,10.1021/acs.jced.0c00996
O=C(Nc1ccccc1)c1ccccc1O,303.15,0.0553989,ethyl acetate,CCOC(C)=O,10.1021/acs.jced.0c01078
O=C(O)c1cccc(O)c1O,303.15,0.06131,ethyl acetate,CCOC(C)=O,10.1021/acs.jced.0c01032
NC(=O)[C@@H]1CCCN1,303.15,0.05492,ethyl acetate,CCOC(C)=O,10.1021/acs.jced.0c00961
CC(=O)O[C@]1(C(C)=O)CC[C@H]2[C@@H]3C=C(Cl)C4=CC(=O)[C@@H]5C[C@@H]5[C@]4(C)[C@H]3CC[C@@]21C,303.15,0.00055975,ethyl acetate,CCOC(C)=O,10.1021/acs.jced.0c00803
c1ccc2[nH]c(-c3cscn3)nc2c1,303.15,0.0008252,ethyl acetate,CCOC(C)=O,10.1021/acs.jced.0c00724
Nc1ccc(Cc2ccc(N)c(Cl)c2)cc1Cl,303.15,0.162,ethyl acetate,CCOC(C)=O,10.1021/acs.jced.0c00655
c1cnc2[nH]ccc2c1,303.15,0.2653,ethyl acetate,CCOC(C)=O,10.1021/acs.jced.0c00128
COc1ccccc1OCCNCC(O)COc1cccc2[nH]c3ccccc3c12,303.15,0.00294,ethyl acetate,CCOC(C)=O,10.1021/acs.jced.0c00040
Nc1cccc(Cl)c1C(=O)O,303.15,0.06123,ethyl acetate,CCOC(C)=O,10.1021/acs.jced.0c00320
CC1=NN(c2ccccc2)C(=O)C1,303.15,0.019784,ethyl acetate,CCOC(C)=O,10.1021/acs.jced.0c00290
C#C[C@]1(O)CC[C@H]2[C@@H]3CCC4=CC(=O)CC[C@@H]4[C@H]3C(=C)C[C@@]21CC,303.15,0.043,ethyl acetate,CCOC(C)=O,10.1021/acs.jced.0c00201
Cl.N=C(N=C(N)N)N1CCOCC1,303.15,0.000117,ethyl acetate,CCOC(C)=O,10.1021/acs.jced.0c00015
Nc1nc(=O)[nH]cc1F,303.15,1.14e-05,ethyl acetate,CCOC(C)=O,10.1021/acs.jced.1c00206
O=C(O)CNCc1ccccc1,303.15,6.7e-05,ethyl acetate,CCOC(C)=O,10.1021/acs.jced.1c00050
O=C(O)c1cccc([N+](=O)[O-])c1O,303.15,0.0943,ethyl acetate,CCOC(C)=O,10.1021/acs.jced.1c00259
Cl.N[C@@H](Cc1ccccc1)C(=O)OCc1ccccc1,303.15,6.3e-05,ethyl acetate,CCOC(C)=O,10.1021/acs.jced.1c00239
O=C1CCc2cc(OCCCCc3nnnn3C3CCCCC3)ccc2N1,303.15,0.000861,ethyl acetate,CCOC(C)=O,10.1021/acs.jced.1c00302
CCOC(=O)[C@@H]1CSCN1.Cl,303.15,0.000215,ethyl acetate,CCOC(C)=O,10.1021/acs.jced.1c00079
CC(C)(C)OC(=O)N1CCC[C@H]1C(=O)O,303.15,0.039174,ethyl acetate,CCOC(C)=O,10.1021/acs.jced.1c00201
O=C(O)c1cccc(C(=O)O)n1,303.15,0.002155,ethyl acetate,CCOC(C)=O,10.1021/acs.jced.1c00200
CNC(=O)c1cc(Oc2ccc(N)cc2)ccn1,303.15,0.13104,ethyl acetate,CCOC(C)=O,10.1021/acs.jced.1c00232
O=C(N[C@H](C(=O)O)c1ccccc1)OCc1ccccc1,303.15,0.037066,ethyl acetate,CCOC(C)=O,10.1021/acs.jced.1c00240
O=C(O)c1cc([N+](=O)[O-])cc([N+](=O)[O-])c1O,303.15,0.07712,ethyl acetate,CCOC(C)=O,10.1021/acs.jced.0c00122
O=C1N=c2ccccc2=N1,303.15,0.0018463,ethyl acetate,CCOC(C)=O,10.1021/acs.jced.0c00165
CC(C)(c1ccc(O)cc1)c1ccc(O)cc1,303.15,0.255,ethyl acetate,CCOC(C)=O,10.1021/acs.jced.0c00166
OCc1ccccc1O[C@@H]1OC(CO)[C@@H](O)[C@@H](O)C1O,303.15,4.518e-05,ethyl acetate,CCOC(C)=O,10.1021/acs.jced.0c00332
OC[C@H]1O[C@@H](Oc2ccc(O)cc2)[C@H](O)[C@@H](O)[C@@H]1O,303.15,0.000166,ethyl acetate,CCOC(C)=O,10.1021/acs.jced.0c00353
CC(CCc1ccccc1)NCC(O)c1ccc(O)c(C(N)=O)c1.Cl,303.15,0.000302,ethyl acetate,CCOC(C)=O,10.1021/acs.jced.1c00432
COc1cc2c(cc1OC)C(=O)CC2,303.15,0.0842,ethyl acetate,CCOC(C)=O,10.1021/acs.jced.1c00040
CC(=O)N1CCC[C@H]1C(=O)O,303.15,0.0096,ethyl acetate,CCOC(C)=O,10.1021/acs.jced.1c00032
NC1CCSC1=O,303.15,0.000342,ethyl acetate,CCOC(C)=O,10.1021/acs.jced.0c01089
CCCOC(=O)c1ccc(O)cc1,303.15,0.2469,ethyl acetate,CCOC(C)=O,10.1021/acs.jced.0c00584
C=CC(=O)NC(C)(C)CS(=O)(=O)O,303.15,0.003376,ethyl acetate,CCOC(C)=O,10.1021/acs.jced.0c00578
O=C(O)Cc1ccccc1[N+](=O)[O-],303.15,0.05499,ethyl acetate,CCOC(C)=O,10.1021/acs.jced.0c00543
O=[N+]([O-])N(CCO)CCO.O=[N+]([O-])O.O=[N+]([O-])O,303.15,0.30974,ethyl acetate,CCOC(C)=O,10.1021/acs.jced.0c00211
O=C(O)Cc1ccc([N+](=O)[O-])cc1,303.15,0.05761,ethyl acetate,CCOC(C)=O,10.1021/acs.jced.0c00182
N[C@@H](CS)C(=O)O,303.15,5.8e-05,ethyl acetate,CCOC(C)=O,10.1021/acs.jced.0c00031
Oc1ccc(OCc2ccccc2)cc1,303.15,0.3994,ethyl acetate,CCOC(C)=O,10.1021/acs.jced.9b00817
O=C([O-])/C=C/C(=O)O.[Na+],303.15,0.0001666,ethyl acetate,CCOC(C)=O,10.1021/acs.jced.9b01203
COC(=O)C1=C(C)NC(C)=C(C(=O)OCC(C)C)C1c1ccccc1[N+](=O)[O-],303.15,0.03155,ethyl acetate,CCOC(C)=O,10.1021/acs.jced.9b01036
O=c1[nH]c2ccccc2c(=O)o1,303.15,0.004338,ethyl acetate,CCOC(C)=O,10.1021/acs.jced.9b01164
O=C[C@H](O)[C@H](O)[C@H](O)CO,303.15,0.0016205,ethyl acetate,CCOC(C)=O,10.1021/acs.jced.0c00009
Oc1c(Br)cc(Br)c2cccnc12,303.15,0.00167,ethyl acetate,CCOC(C)=O,10.1021/acs.jced.9b01190
Cc1c(Br)cccc1C(=O)O,303.15,0.05244,ethyl acetate,CCOC(C)=O,10.1021/acs.jced.9b01007
CC(=O)N[C@@H](CC(C)C)C(=O)O,303.15,0.002068,ethyl acetate,CCOC(C)=O,10.1021/acs.jced.9b01151
CN(C)Cc1c[nH]c2ccccc12,303.15,0.03775,ethyl acetate,CCOC(C)=O,10.1021/acs.jced.9b00911
CN(C)Cc1c[nH]c2ccccc12,303.15,0.0013242,ethyl acetate,CCOC(C)=O,10.1021/acs.jced.9b01063
C[C@H](N)C(=O)O,303.15,0.00016,ethyl acetate,CCOC(C)=O,10.1021/acs.jced.9b00743
COc1cc([N+](=O)[O-])ccc1N,303.15,0.04855,ethyl acetate,CCOC(C)=O,10.1021/acs.jced.9b00991
O=Cc1ccc(O)c(Br)c1,303.15,0.02094,ethyl acetate,CCOC(C)=O,10.1021/acs.jced.9b01004
CCCc1ncc(C[n+]2ccccc2C)c(N)n1.Cl.[Cl-],303.15,8.91e-05,ethyl acetate,CCOC(C)=O,10.1021/acs.jced.9b00999
Nc1ccc(Cl)cc1[N+](=O)[O-],303.15,0.06844,ethyl acetate,CCOC(C)=O,10.1021/acs.jced.9b00919
O=C(O)c1cccnc1Cl,303.15,0.0308,ethyl acetate,CCOC(C)=O,10.1021/acs.jced.9b00661
OC[C@H]1O[C@@H](Oc2ccc(O)cc2)[C@H](O)[C@@H](O)[C@@H]1O,303.15,9.62e-05,ethyl acetate,CCOC(C)=O,10.1021/acs.jced.9b00703
NC(N)=NC(N)=NCCc1ccccc1,303.15,0.003786,ethyl acetate,CCOC(C)=O,10.1021/acs.jced.9b00844
CN1CCN(c2c(F)cc3c(=O)c(C(=O)O)cn4c3c2OCN4C)CC1,303.15,0.0002547,ethyl acetate,CCOC(C)=O,10.1021/acs.jced.9b00490
Nc1c(Cl)cc([N+](=O)[O-])cc1Cl,303.15,0.01774,ethyl acetate,CCOC(C)=O,10.1021/acs.jced.9b00778
CN(C)[C@@H]1C(=O)C(C(N)=O)=C(O)[C@@]2(O)C(=O)C3=C(O)c4c(O)cccc4C[C@H]3C[C@@H]12,303.15,0.0007608,ethyl acetate,CCOC(C)=O,10.1021/acs.jced.9b00693
NCCCCCC(=O)O,303.15,0.0002,ethyl acetate,CCOC(C)=O,10.1021/acs.jced.9b00543
OCc1ccc(O[C@@H]2O[C@H](CO)[C@@H](O)[C@H](O)[C@H]2O)cc1,303.15,0.00418,ethyl acetate,CCOC(C)=O,10.1021/acs.jced.9b00286
O=[N+]([O-])c1ncccc1O,303.15,0.2542,ethyl acetate,CCOC(C)=O,10.1021/acs.jced.9b00564
N=C(N)NC(N)=S,303.15,0.004714,ethyl acetate,CCOC(C)=O,10.1021/acs.jced.9b00458
CC1(C)COP(=O)(Oc2cccc(OP3(=O)OCC(C)(C)CO3)c2)OC1,303.15,0.00123,ethyl acetate,CCOC(C)=O,10.1021/acs.jced.7b00695
O=C(O)C=CC(=O)O.OCCOCCN1CCN(C2=Nc3ccccc3Sc3ccccc32)CC1.OCCOCCN1CCN(C2=Nc3ccccc3Sc3ccccc32)CC1,303.15,0.000218,ethyl acetate,CCOC(C)=O,10.1021/acs.jced.7b00518
C[C@]12CCC3=C4CCC(=O)C=C4CC[C@H]3[C@@H]1CC[C@@]2(O)CC#N,303.15,0.00304,ethyl acetate,CCOC(C)=O,10.1021/acs.jced.9b00696
c1cc(-n2c3ccccc3c3ccccc32)cc(-n2c3ccccc3c3ccccc32)c1,303.15,0.00827,ethyl acetate,CCOC(C)=O,10.1021/acs.jced.9b00432
N[C@@H](CO)C(=O)O,303.15,4e-05,ethyl acetate,CCOC(C)=O,10.1021/acs.jced.9b00460
Cc1nc(N)nc(N)n1,303.15,0.001254,ethyl acetate,CCOC(C)=O,10.1021/acs.jced.9b00593
N[C@@H](Cc1c[nH]c2ccccc12)C(=O)O,303.15,0.00014,ethyl acetate,CCOC(C)=O,10.1021/acs.jced.9b00562
Cc1cnc(C(=O)O)cn1,303.15,9.45e-06,ethyl acetate,CCOC(C)=O,10.1021/acs.jced.9b00406
Nc1nnn[nH]1,303.15,0.000834,ethyl acetate,CCOC(C)=O,10.1021/acs.jced.9b00385
NNC(=O)NN.O=[N+]([O-])NC1=NC(C2N=NC(N[N+](=O)[O-])=N2)N=N1,303.15,3.23e-05,ethyl acetate,CCOC(C)=O,10.1021/acs.jced.9b00275
Sc1nc2ccccc2[nH]1,303.15,0.00413,ethyl acetate,CCOC(C)=O,10.1021/acs.jced.9b00190
Cc1c(C(=O)O)cc([N+](=O)[O-])cc1[N+](=O)[O-],303.15,0.03591,ethyl acetate,CCOC(C)=O,10.1021/acs.jced.9b00497
CC(=NC#N)N(C)Cc1ccc(Cl)nc1,303.15,0.02807,ethyl acetate,CCOC(C)=O,10.1021/acs.jced.9b00294
Cc1n[nH]c2cc([N+](=O)[O-])ccc12,303.15,0.0295,ethyl acetate,CCOC(C)=O,10.1021/acs.jced.8b01256
NS(=O)(=O)c1ccccc1,303.15,0.05629,ethyl acetate,CCOC(C)=O,10.1021/acs.jced.9b00360
CN(C)/C=C/C(=O)c1cccnc1,303.15,0.02001,ethyl acetate,CCOC(C)=O,10.1021/acs.jced.9b00047
CC(=O)c1c(C)c([N+](=O)[O-])c(C(C)(C)C)c([N+](=O)[O-])c1C,303.15,0.1218,ethyl acetate,CCOC(C)=O,10.1021/acs.jced.9b00310
N#Cc1cccc([N+](=O)[O-])c1C#N,303.15,0.03722,ethyl acetate,CCOC(C)=O,10.1021/acs.jced.8b01250
O=Cc1cc([N+](=O)[O-])ccc1O,303.15,0.02675,ethyl acetate,CCOC(C)=O,10.1021/acs.jced.9b00232
N[C@H](Cc1c[nH]c2ccccc12)C(=O)O,303.15,0.0005414,ethyl acetate,CCOC(C)=O,10.1021/acs.jced.9b00258
N[C@@H](Cc1ccc(O)cc1)C(=O)O,303.15,0.003403,ethyl acetate,CCOC(C)=O,10.1021/acs.jced.9b00258
N#CCc1ccccc1[N+](=O)[O-],303.15,0.2193,ethyl acetate,CCOC(C)=O,10.1021/acs.jced.9b00243
Nc1cc([N+](=O)[O-])ccc1Cl,303.15,0.1256,ethyl acetate,CCOC(C)=O,10.1021/acs.jced.8b00931
CCOC(=O)[C@@H](C)Oc1ccc(Oc2cnc3cc(Cl)ccc3n2)cc1,303.15,0.01135,ethyl acetate,CCOC(C)=O,10.1021/acs.jced.8b01181
N#CCC(N)=O,303.15,0.01104,ethyl acetate,CCOC(C)=O,10.1021/acs.jced.8b01205
Cc1cccc(C(=O)O)c1N,303.15,0.06185,ethyl acetate,CCOC(C)=O,10.1021/acs.jced.8b01226
NC(=O)c1ccc([N+](=O)[O-])cc1,303.15,0.004708,ethyl acetate,CCOC(C)=O,10.1021/acs.jced.9b00065
Nc1nc2c(ncn2COC(CO)CO)c(=O)[nH]1,303.15,9.973e-07,ethyl acetate,CCOC(C)=O,10.1021/acs.jced.8b01080
Nc1cccc2c(N)cccc12,303.15,0.009917,ethyl acetate,CCOC(C)=O,10.1021/acs.jced.8b01214
Nc1cccc2cccc(N)c12,303.15,0.2116,ethyl acetate,CCOC(C)=O,10.1021/acs.jced.8b01214
C[C@@H](O)[C@H]1C(=O)N2C(C(=O)[O-])=C(SC3Cn4cnc[n+]4C3)[C@H](C)[C@H]12,303.15,7.97e-05,ethyl acetate,CCOC(C)=O,10.1021/acs.jced.8b01051
O=C(O)Cc1c[nH]c2ccccc12,303.15,4.581e-05,ethyl acetate,CCOC(C)=O,10.1021/acs.jced.8b01265
CC#C[C@]1(O)CC[C@H]2[C@@H]3CCC4=CC(=O)CCC4=C3[C@@H](c3ccc(N(C)C)cc3)C[C@@]21C,303.15,0.000325,ethyl acetate,CCOC(C)=O,10.1021/acs.jced.8b01062
NC(=O)c1ccc(N)cc1,303.15,0.001032,ethyl acetate,CCOC(C)=O,10.1021/acs.jced.8b01144
CC(=O)N(CC(O)CO)c1c(I)c(C(=O)NCC(O)CO)c(I)c(C(=O)NCC(O)CO)c1I,303.15,0.0002559,ethyl acetate,CCOC(C)=O,10.1021/acs.jced.8b01101
CC(C)N1C(=O)N(c2ccccc2)CSC1=NC(C)(C)C,303.15,0.1157,ethyl acetate,CCOC(C)=O,10.1021/acs.jced.8b01099
Cc1nc(C)c(C)nc1C,303.15,0.244,ethyl acetate,CCOC(C)=O,10.1021/acs.jced.8b00888
COc1c(N2CCNC(C)C2)c(F)cc2c(=O)c(C(=O)O)cn(C3CC3)c12,303.15,0.007781,ethyl acetate,CCOC(C)=O,10.1021/acs.jced.8b00902
CCOC(=O)C1=C[C@]2(CC)CCCN3CCc4c(n1c1ccccc41)[C@@H]32,303.15,0.0087908,ethyl acetate,CCOC(C)=O,10.1021/acs.jced.8b00663
N#CCc1ccc([N+](=O)[O-])cc1,303.15,0.1698,ethyl acetate,CCOC(C)=O,10.1021/acs.jced.8b00811
COc1ccc(Cl)cc1C(=O)NCCc1ccc(S(=O)(=O)NC(=O)NC2CCCCC2)cc1,303.15,0.00022627,ethyl acetate,CCOC(C)=O,10.1021/acs.jced.8b00717
NNC(=O)c1ccncc1,303.15,0.001946,ethyl acetate,CCOC(C)=O,10.1021/acs.jced.8b00785
CC[C@@H](C(N)=O)N1CCCC1=O,303.15,0.01044,ethyl acetate,CCOC(C)=O,10.1021/acs.jced.8b00720
O=C(O)c1cc2ccccc2cc1O,303.15,0.02784,ethyl acetate,CCOC(C)=O,10.1021/acs.jced.8b00578
CCOC(=O)[C@H](CCc1ccccc1)N[C@@H](C)C(=O)O,303.15,0.01155,ethyl acetate,CCOC(C)=O,10.1021/acs.jced.8b00333
CCOC(=O)[C@H](CCc1ccccc1)N[C@@H](C)C(=O)N1CCC[C@H]1C(=O)O.O=C(O)/C=C\C(=O)O,303.15,0.005758,ethyl acetate,CCOC(C)=O,10.1021/acs.jced.8b00333
CC(C)(C#N)N=NC(C)(C)C#N,303.15,0.095948,ethyl acetate,CCOC(C)=O,10.1021/acs.jced.7b00538
CC1(C)COP(=O)(C(Nc2ccccc2)c2ccccc2)OC1,303.15,0.00385,ethyl acetate,CCOC(C)=O,10.1021/acs.jced.7b00585
Cc1ccc(S(N)(=O)=O)cc1,303.15,0.1042,ethyl acetate,CCOC(C)=O,10.1021/acs.jced.7b00714
Cc1ccccc1S(N)(=O)=O,303.15,0.06441,ethyl acetate,CCOC(C)=O,10.1021/acs.jced.7b00714
N#Cc1cccc([N+](=O)[O-])c1,303.15,0.1086,ethyl acetate,CCOC(C)=O,10.1021/acs.jced.7b00615
CS(=O)(=O)c1ccc([C@@H](O)[C@@H](CO)NC(=O)C(Cl)Cl)cc1,303.15,0.0003481,ethyl acetate,CCOC(C)=O,10.1021/acs.jced.7b00542
NC(=O)c1cccnc1,303.15,0.0128994,ethyl acetate,CCOC(C)=O,10.1021/acs.jced.8b00560
COCC(=O)Nc1c(I)c(C(=O)NCC(O)CO)c(I)c(C(=O)N(C)CC(O)CO)c1I,303.15,6.84e-05,ethyl acetate,CCOC(C)=O,10.1021/acs.jced.8b00416
Nc1nc(Cl)cc(Cl)n1,303.15,0.00981,ethyl acetate,CCOC(C)=O,10.1021/acs.jced.8b00292
O=C(c1ccccc1)C(O)c1ccccc1,303.15,0.0151,ethyl acetate,CCOC(C)=O,10.1021/acs.jced.7b00238
COc1cc(C(=O)O)cc(OC)c1O,303.15,0.00149,ethyl acetate,CCOC(C)=O,10.1021/acs.jced.7b00333
On1nnc2ccccc21,303.15,0.01487,ethyl acetate,CCOC(C)=O,10.1021/acs.jced.7b00316
O=C(O)Cc1cccc2ccccc12,303.15,0.14,ethyl acetate,CCOC(C)=O,10.1021/acs.jced.6b00816
COc1ccc(CN2CCNCC2)c(OC)c1OC.Cl,303.15,0.002437,ethyl acetate,CCOC(C)=O,10.1021/acs.jced.8b00235
CC(=O)c1cccc([N+](=O)[O-])c1,303.15,0.1908,ethyl acetate,CCOC(C)=O,10.1021/acs.jced.8b00192
CC(=O)c1ccc([N+](=O)[O-])cc1,303.15,0.2196,ethyl acetate,CCOC(C)=O,10.1021/acs.jced.8b00192
COc1ccc(C(=O)N2CCCC2=O)cc1,303.15,0.03845,ethyl acetate,CCOC(C)=O,10.1021/acs.jced.8b00023
O=C(O)Cc1ccccc1Cl,303.15,0.3119,ethyl acetate,CCOC(C)=O,10.1021/acs.jced.8b00139
Nc1ccc(C(=O)O)cc1.[K],303.15,0.000211,ethyl acetate,CCOC(C)=O,10.1021/acs.jced.7b00978
Nc1ccc(S(=O)(=O)Nc2ccc(Cl)nn2)cc1,303.15,0.01788,ethyl acetate,CCOC(C)=O,10.1021/acs.jced.7b01134
O=C(c1ccccc1)c1ccccc1,303.15,0.5327,ethyl acetate,CCOC(C)=O,10.1021/acs.jced.8b00196
Cc1ccc(NC(=O)/C(=C/Cl)Sc2ccccc2)cc1,303.15,0.0522,ethyl acetate,CCOC(C)=O,10.1021/acs.jced.7b01011
O=C(c1ccccc1)C(O)c1ccccc1,303.15,0.01608,ethyl acetate,CCOC(C)=O,10.1021/acs.jced.7b00743
O=C(O)c1ccccc1O,303.15,0.14009,ethyl acetate,CCOC(C)=O,10.1021/acs.jced.7b00665
O=C1O[C@H]([C@@H](O)CO)C(O)=C1O.[Na],303.15,1.93e-05,ethyl acetate,CCOC(C)=O,10.1021/acs.jced.7b00846
CO/C=C(/C(=O)OC)c1ccccc1Oc1cc(Oc2ccccc2C#N)ncn1,303.15,0.041461,ethyl acetate,CCOC(C)=O,10.1021/acs.jced.7b00669
O=[N+]([O-])N1C2C3N([N+](=O)[O-])C1C1N([N+](=O)[O-])C(C(N1[N+](=O)[O-])N3[N+](=O)[O-])N2[N+](=O)[O-],303.15,0.09812,ethyl acetate,CCOC(C)=O,10.1021/acs.jced.6b00664
O=[N+]([O-])N1C2C3N([N+](=O)[O-])C1C1N([N+](=O)[O-])C(C(N1[N+](=O)[O-])N3[N+](=O)[O-])N2[N+](=O)[O-],303.15,0.092425,ethyl acetate,CCOC(C)=O,10.1021/acs.jced.6b00761
CCCCC1C(=O)N(c2ccccc2)N(c2ccccc2)C1=O,303.15,0.12177,ethyl acetate,CCOC(C)=O,10.1021/acs.jced.6b00911
CO[C@@]1(NC(=O)CSCC#N)C(=O)N2C(C(=O)[O-])=C(CSc3nnnn3C)CS[C@@H]21.[Na+],303.15,0.000137,ethyl acetate,CCOC(C)=O,10.1021/acs.jced.6b00741
CC(=O)c1ccc(S(C)(=O)=O)cc1,303.15,0.0402,ethyl acetate,CCOC(C)=O,10.1021/acs.jced.6b00617
COC(=O)c1c(C)cc(O)c(C)c1O,303.15,0.1542,ethyl acetate,CCOC(C)=O,10.1021/acs.jced.6b00646
O=C(/C=C/c1ccc(O)c(O)c1)O[C@H](Cc1ccc(O)c(O)c1)C(=O)O,303.15,0.050632,ethyl acetate,CCOC(C)=O,10.1021/acs.jced.6b00008
O=C1NC23NC(=O)NC2(N1)C(=O)NC3=O,303.15,0.0001671,ethyl acetate,CCOC(C)=O,10.1021/acs.jced.6b00349
O=C(O)/C=C/c1ccc(O)cc1,303.15,0.0144,ethyl acetate,CCOC(C)=O,10.1021/acs.jced.6b00361
O=C1NC(=O)c2cc([N+](=O)[O-])ccc21,303.15,0.01805,ethyl acetate,CCOC(C)=O,10.1021/acs.jced.6b00230
[NH3+]O.[NH3+]O.[O-]n1nnnc1-c1nnnn1[O-],303.15,2.374e-06,ethyl acetate,CCOC(C)=O,10.1021/acs.jced.6b00009